n -t * -s 0  -x 0 -y 0 -Z 0 -z 30+i*100  -v circle -c black
n -t * -s 1  -x 0 -y 0 -Z 0 -z 30+i*100  -v circle -c black
n -t * -s 2  -x 0 -y 0 -Z 0 -z 30+i*100  -v circle -c black
n -t * -s 3  -x 0 -y 0 -Z 0 -z 30+i*100  -v circle -c black
n -t * -s 4  -x 0 -y 0 -Z 0 -z 30+i*100  -v circle -c black
n -t * -s 5  -x 0 -y 0 -Z 0 -z 30+i*100  -v circle -c black
V -t * -v 1.0a5 -a 0
W -t * -x 800 -y 800
A -t * -n 1 -p 0 -o 0x7fffffff -c 30 -a 1
A -t * -h 1 -m 1073741823 -s 0
c -t * -i 4 -n brown
c -t * -i 0 -n blue
c -t * -i 5 -n tan
c -t * -i 1 -n red
c -t * -i 6 -n gold
c -t * -i 2 -n chocolate
c -t * -i 7 -n black
c -t * -i 3 -n red
n -t 0 -s 0 -S COLOR -c blue -o 0 -i blue -I 0
n -t 0 -s 1 -S COLOR -c red -o blue -i red -I blue
n -t 0 -s 5 -S COLOR -c blue -o red -i blue -I red
n -t 0.000000 -s 0 -x 0.000000 -y 0.000000 -U 1341.640786 -V 2683.281573 -T 0.149071
n -t 0.000000 -s 1 -x 0.000000 -y 0.000000 -U 2558.263245 -V 1566.936237 -T 0.156356
n -t 0.000000 -s 2 -x 0.000000 -y 0.000000 -U 2808.987533 -V 1053.370325 -T 0.142400
n -t 0.000000 -s 3 -x 0.000000 -y 0.000000 -U 2683.281573 -V 1341.640786 -T 0.149071
n -t 0.000000 -s 4 -x 0.000000 -y 0.000000 -U 2543.994912 -V 1589.996820 -T 0.157233
n -t 0.000000 -s 5 -x 0.000000 -y 0.000000 -U 2496.150883 -V 1664.100589 -T 0.240370
+ -t 1.000000000 -s 0 -d -1 -p cbr -e 3000 -c 2 -a 0 -i 0 -k AGT 
- -t 1.000000000 -s 0 -d -1 -p cbr -e 3000 -c 2 -a 0 -i 0 -k AGT
h -t 1.000000000 -s 0 -d -1 -p cbr -e 3000 -c 2 -a 0 -i 0 -k AGT
+ -t 1.000000000 -s 0 -d -1 -p AODV -e 48 -c 2 -a 0 -i 0 -k RTR 
- -t 1.000000000 -s 0 -d -1 -p AODV -e 48 -c 2 -a 0 -i 0 -k RTR
h -t 1.000000000 -s 0 -d -1 -p AODV -e 48 -c 2 -a 0 -i 0 -k RTR
+ -t 1.000235000 -s 0 -d -1 -p AODV -e 106 -c 2 -a 0 -i 0 -k MAC 
- -t 1.000235000 -s 0 -d -1 -p AODV -e 106 -c 2 -a 0 -i 0 -k MAC
h -t 1.000235000 -s 0 -d -1 -p AODV -e 106 -c 2 -a 0 -i 0 -k MAC
r -t 1.001083833 -s 4 -d -1 -p AODV -e 48 -c 2 -a 0 -i 0 -k MAC
r -t 1.001108833 -s 4 -d -1 -p AODV -e 48 -c 2 -a 0 -i 0 -k RTR
+ -t 1.003454851 -s 4 -d -1 -p AODV -e 48 -c 2 -a 0 -i 0 -k RTR 
- -t 1.003454851 -s 4 -d -1 -p AODV -e 48 -c 2 -a 0 -i 0 -k RTR
h -t 1.003454851 -s 4 -d -1 -p AODV -e 48 -c 2 -a 0 -i 0 -k RTR
+ -t 1.003889851 -s 4 -d -1 -p AODV -e 106 -c 2 -a 0 -i 0 -k MAC 
- -t 1.003889851 -s 4 -d -1 -p AODV -e 106 -c 2 -a 0 -i 0 -k MAC
h -t 1.003889851 -s 4 -d -1 -p AODV -e 106 -c 2 -a 0 -i 0 -k MAC
r -t 1.004737868 -s 1 -d -1 -p AODV -e 48 -c 2 -a 0 -i 0 -k MAC
r -t 1.004738018 -s 3 -d -1 -p AODV -e 48 -c 2 -a 0 -i 0 -k MAC
r -t 1.004738184 -s 2 -d -1 -p AODV -e 48 -c 2 -a 0 -i 0 -k MAC
r -t 1.004738684 -s 0 -d -1 -p AODV -e 48 -c 2 -a 0 -i 0 -k MAC
r -t 1.004738684 -s 5 -d -1 -p AODV -e 48 -c 2 -a 0 -i 0 -k MAC
r -t 1.004762868 -s 1 -d -1 -p AODV -e 48 -c 2 -a 0 -i 0 -k RTR
r -t 1.004763018 -s 3 -d -1 -p AODV -e 48 -c 2 -a 0 -i 0 -k RTR
r -t 1.004763184 -s 2 -d -1 -p AODV -e 48 -c 2 -a 0 -i 0 -k RTR
r -t 1.004763684 -s 0 -d -1 -p AODV -e 48 -c 2 -a 0 -i 0 -k RTR
r -t 1.004763684 -s 5 -d -1 -p AODV -e 48 -c 2 -a 0 -i 0 -k RTR
+ -t 1.004763684 -s 5 -d 4 -p AODV -e 44 -c 2 -a 0 -i 0 -k RTR 
- -t 1.004763684 -s 5 -d 4 -p AODV -e 44 -c 2 -a 0 -i 0 -k RTR
h -t 1.004763684 -s 5 -d 4 -p AODV -e 44 -c 2 -a 0 -i 0 -k RTR
+ -t 1.004978684 -s 5 -d -1 -p ARP -e 86 -c 2 -a 0 -i 0 -k MAC 
- -t 1.004978684 -s 5 -d -1 -p ARP -e 86 -c 2 -a 0 -i 0 -k MAC
h -t 1.004978684 -s 5 -d -1 -p ARP -e 86 -c 2 -a 0 -i 0 -k MAC
+ -t 1.005191130 -s 2 -d -1 -p AODV -e 48 -c 2 -a 0 -i 0 -k RTR 
- -t 1.005191130 -s 2 -d -1 -p AODV -e 48 -c 2 -a 0 -i 0 -k RTR
h -t 1.005191130 -s 2 -d -1 -p AODV -e 48 -c 2 -a 0 -i 0 -k RTR
r -t 1.005667518 -s 4 -d -1 -p ARP -e 28 -c 2 -a 0 -i 0 -k MAC
+ -t 1.005797518 -s 4 -d -1 -p RTS -e 44 -c 2 -a 0 -i 0 -k MAC 
- -t 1.005797518 -s 4 -d -1 -p RTS -e 44 -c 2 -a 0 -i 0 -k MAC
h -t 1.005797518 -s 4 -d -1 -p RTS -e 44 -c 2 -a 0 -i 0 -k MAC
r -t 1.006150351 -s 5 -d -1 -p RTS -e 44 -c 2 -a 0 -i 0 -k MAC
+ -t 1.006160351 -s 5 -d -1 -p CTS -e 38 -c 2 -a 0 -i 0 -k MAC 
- -t 1.006160351 -s 5 -d -1 -p CTS -e 38 -c 2 -a 0 -i 0 -k MAC
h -t 1.006160351 -s 5 -d -1 -p CTS -e 38 -c 2 -a 0 -i 0 -k MAC
+ -t 1.006404472 -s 3 -d -1 -p AODV -e 48 -c 2 -a 0 -i 0 -k RTR 
- -t 1.006404472 -s 3 -d -1 -p AODV -e 48 -c 2 -a 0 -i 0 -k RTR
h -t 1.006404472 -s 3 -d -1 -p AODV -e 48 -c 2 -a 0 -i 0 -k RTR
r -t 1.006465184 -s 4 -d -1 -p CTS -e 38 -c 2 -a 0 -i 0 -k MAC
+ -t 1.006475184 -s 4 -d -1 -p ARP -e 86 -c 2 -a 0 -i 0 -k MAC 
- -t 1.006475184 -s 4 -d -1 -p ARP -e 86 -c 2 -a 0 -i 0 -k MAC
h -t 1.006475184 -s 4 -d -1 -p ARP -e 86 -c 2 -a 0 -i 0 -k MAC
r -t 1.007164018 -s 5 -d -1 -p ARP -e 28 -c 2 -a 0 -i 0 -k MAC
+ -t 1.007174018 -s 5 -d -1 -p ACK -e 38 -c 2 -a 0 -i 0 -k MAC 
- -t 1.007174018 -s 5 -d -1 -p ACK -e 38 -c 2 -a 0 -i 0 -k MAC
h -t 1.007174018 -s 5 -d -1 -p ACK -e 38 -c 2 -a 0 -i 0 -k MAC
r -t 1.007478851 -s 4 -d -1 -p ACK -e 38 -c 2 -a 0 -i 0 -k MAC
+ -t 1.007688018 -s 5 -d -1 -p RTS -e 44 -c 2 -a 0 -i 0 -k MAC 
- -t 1.007688018 -s 5 -d -1 -p RTS -e 44 -c 2 -a 0 -i 0 -k MAC
h -t 1.007688018 -s 5 -d -1 -p RTS -e 44 -c 2 -a 0 -i 0 -k MAC
r -t 1.008040851 -s 4 -d -1 -p RTS -e 44 -c 2 -a 0 -i 0 -k MAC
+ -t 1.008050851 -s 4 -d -1 -p CTS -e 38 -c 2 -a 0 -i 0 -k MAC 
- -t 1.008050851 -s 4 -d -1 -p CTS -e 38 -c 2 -a 0 -i 0 -k MAC
h -t 1.008050851 -s 4 -d -1 -p CTS -e 38 -c 2 -a 0 -i 0 -k MAC
r -t 1.008355684 -s 5 -d -1 -p CTS -e 38 -c 2 -a 0 -i 0 -k MAC
+ -t 1.008365684 -s 5 -d 4 -p AODV -e 102 -c 2 -a 0 -i 0 -k MAC 
- -t 1.008365684 -s 5 -d 4 -p AODV -e 102 -c 2 -a 0 -i 0 -k MAC
h -t 1.008365684 -s 5 -d 4 -p AODV -e 102 -c 2 -a 0 -i 0 -k MAC
r -t 1.009182518 -s 4 -d 4 -p AODV -e 44 -c 2 -a 0 -i 0 -k MAC
+ -t 1.009192518 -s 4 -d -1 -p ACK -e 38 -c 2 -a 0 -i 0 -k MAC 
- -t 1.009192518 -s 4 -d -1 -p ACK -e 38 -c 2 -a 0 -i 0 -k MAC
h -t 1.009192518 -s 4 -d -1 -p ACK -e 38 -c 2 -a 0 -i 0 -k MAC
+ -t 1.009207518 -s 4 -d 0 -p AODV -e 44 -c 2 -a 0 -i 0 -k RTR 
- -t 1.009207518 -s 4 -d 0 -p AODV -e 44 -c 2 -a 0 -i 0 -k RTR
h -t 1.009207518 -s 4 -d 0 -p AODV -e 44 -c 2 -a 0 -i 0 -k RTR
r -t 1.009497351 -s 5 -d -1 -p ACK -e 38 -c 2 -a 0 -i 0 -k MAC
+ -t 1.009756627 -s 3 -d -1 -p AODV -e 106 -c 2 -a 0 -i 0 -k MAC 
- -t 1.009756627 -s 3 -d -1 -p AODV -e 106 -c 2 -a 0 -i 0 -k MAC
h -t 1.009756627 -s 3 -d -1 -p AODV -e 106 -c 2 -a 0 -i 0 -k MAC
r -t 1.010604777 -s 1 -d -1 -p AODV -e 48 -c 2 -a 0 -i 0 -k MAC
r -t 1.010604794 -s 4 -d -1 -p AODV -e 48 -c 2 -a 0 -i 0 -k MAC
r -t 1.010604794 -s 2 -d -1 -p AODV -e 48 -c 2 -a 0 -i 0 -k MAC
r -t 1.010629777 -s 1 -d -1 -p AODV -e 48 -c 2 -a 0 -i 0 -k RTR
r -t 1.010629794 -s 4 -d -1 -p AODV -e 48 -c 2 -a 0 -i 0 -k RTR
r -t 1.010629794 -s 2 -d -1 -p AODV -e 48 -c 2 -a 0 -i 0 -k RTR
+ -t 1.010794794 -s 4 -d -1 -p ARP -e 86 -c 2 -a 0 -i 0 -k MAC 
- -t 1.010794794 -s 4 -d -1 -p ARP -e 86 -c 2 -a 0 -i 0 -k MAC
h -t 1.010794794 -s 4 -d -1 -p ARP -e 86 -c 2 -a 0 -i 0 -k MAC
r -t 1.011482810 -s 1 -d -1 -p ARP -e 28 -c 2 -a 0 -i 0 -k MAC
r -t 1.011482960 -s 3 -d -1 -p ARP -e 28 -c 2 -a 0 -i 0 -k MAC
r -t 1.011483127 -s 2 -d -1 -p ARP -e 28 -c 2 -a 0 -i 0 -k MAC
r -t 1.011483627 -s 0 -d -1 -p ARP -e 28 -c 2 -a 0 -i 0 -k MAC
r -t 1.011483627 -s 5 -d -1 -p ARP -e 28 -c 2 -a 0 -i 0 -k MAC
+ -t 1.011593127 -s 2 -d -1 -p AODV -e 106 -c 2 -a 0 -i 0 -k MAC 
- -t 1.011593127 -s 2 -d -1 -p AODV -e 106 -c 2 -a 0 -i 0 -k MAC
h -t 1.011593127 -s 2 -d -1 -p AODV -e 106 -c 2 -a 0 -i 0 -k MAC
r -t 1.012441294 -s 3 -d -1 -p AODV -e 48 -c 2 -a 0 -i 0 -k MAC
r -t 1.012441444 -s 1 -d -1 -p AODV -e 48 -c 2 -a 0 -i 0 -k MAC
r -t 1.012441460 -s 4 -d -1 -p AODV -e 48 -c 2 -a 0 -i 0 -k MAC
r -t 1.012466294 -s 3 -d -1 -p AODV -e 48 -c 2 -a 0 -i 0 -k RTR
r -t 1.012466444 -s 1 -d -1 -p AODV -e 48 -c 2 -a 0 -i 0 -k RTR
r -t 1.012466460 -s 4 -d -1 -p AODV -e 48 -c 2 -a 0 -i 0 -k RTR
+ -t 1.013036194 -s 0 -d -1 -p RTS -e 44 -c 2 -a 0 -i 0 -k MAC 
- -t 1.013036194 -s 0 -d -1 -p RTS -e 44 -c 2 -a 0 -i 0 -k MAC
h -t 1.013036194 -s 0 -d -1 -p RTS -e 44 -c 2 -a 0 -i 0 -k MAC
+ -t 1.013126103 -s 1 -d -1 -p AODV -e 48 -c 2 -a 0 -i 0 -k RTR 
- -t 1.013126103 -s 1 -d -1 -p AODV -e 48 -c 2 -a 0 -i 0 -k RTR
h -t 1.013126103 -s 1 -d -1 -p AODV -e 48 -c 2 -a 0 -i 0 -k RTR
r -t 1.013389028 -s 4 -d -1 -p RTS -e 44 -c 2 -a 0 -i 0 -k MAC
+ -t 1.013399028 -s 4 -d -1 -p CTS -e 38 -c 2 -a 0 -i 0 -k MAC 
- -t 1.013399028 -s 4 -d -1 -p CTS -e 38 -c 2 -a 0 -i 0 -k MAC
h -t 1.013399028 -s 4 -d -1 -p CTS -e 38 -c 2 -a 0 -i 0 -k MAC
r -t 1.013703861 -s 0 -d -1 -p CTS -e 38 -c 2 -a 0 -i 0 -k MAC
+ -t 1.013713861 -s 0 -d -1 -p ARP -e 86 -c 2 -a 0 -i 0 -k MAC 
- -t 1.013713861 -s 0 -d -1 -p ARP -e 86 -c 2 -a 0 -i 0 -k MAC
h -t 1.013713861 -s 0 -d -1 -p ARP -e 86 -c 2 -a 0 -i 0 -k MAC
r -t 1.014402694 -s 4 -d -1 -p ARP -e 28 -c 2 -a 0 -i 0 -k MAC
+ -t 1.014412694 -s 4 -d -1 -p ACK -e 38 -c 2 -a 0 -i 0 -k MAC 
- -t 1.014412694 -s 4 -d -1 -p ACK -e 38 -c 2 -a 0 -i 0 -k MAC
h -t 1.014412694 -s 4 -d -1 -p ACK -e 38 -c 2 -a 0 -i 0 -k MAC
r -t 1.014717528 -s 0 -d -1 -p ACK -e 38 -c 2 -a 0 -i 0 -k MAC
+ -t 1.015056704 -s 1 -d -1 -p AODV -e 106 -c 2 -a 0 -i 0 -k MAC 
- -t 1.015056704 -s 1 -d -1 -p AODV -e 106 -c 2 -a 0 -i 0 -k MAC
h -t 1.015056704 -s 1 -d -1 -p AODV -e 106 -c 2 -a 0 -i 0 -k MAC
r -t 1.015904721 -s 4 -d -1 -p AODV -e 48 -c 2 -a 0 -i 0 -k MAC
r -t 1.015904854 -s 3 -d -1 -p AODV -e 48 -c 2 -a 0 -i 0 -k MAC
r -t 1.015905021 -s 2 -d -1 -p AODV -e 48 -c 2 -a 0 -i 0 -k MAC
r -t 1.015929721 -s 4 -d -1 -p AODV -e 48 -c 2 -a 0 -i 0 -k RTR
r -t 1.015929854 -s 3 -d -1 -p AODV -e 48 -c 2 -a 0 -i 0 -k RTR
r -t 1.015930021 -s 2 -d -1 -p AODV -e 48 -c 2 -a 0 -i 0 -k RTR
+ -t 1.016114721 -s 4 -d -1 -p RTS -e 44 -c 2 -a 0 -i 0 -k MAC 
- -t 1.016114721 -s 4 -d -1 -p RTS -e 44 -c 2 -a 0 -i 0 -k MAC
h -t 1.016114721 -s 4 -d -1 -p RTS -e 44 -c 2 -a 0 -i 0 -k MAC
r -t 1.016467554 -s 0 -d -1 -p RTS -e 44 -c 2 -a 0 -i 0 -k MAC
+ -t 1.016477554 -s 0 -d -1 -p CTS -e 38 -c 2 -a 0 -i 0 -k MAC 
- -t 1.016477554 -s 0 -d -1 -p CTS -e 38 -c 2 -a 0 -i 0 -k MAC
h -t 1.016477554 -s 0 -d -1 -p CTS -e 38 -c 2 -a 0 -i 0 -k MAC
r -t 1.016782388 -s 4 -d -1 -p CTS -e 38 -c 2 -a 0 -i 0 -k MAC
+ -t 1.016792388 -s 4 -d 0 -p AODV -e 102 -c 2 -a 0 -i 0 -k MAC 
- -t 1.016792388 -s 4 -d 0 -p AODV -e 102 -c 2 -a 0 -i 0 -k MAC
h -t 1.016792388 -s 4 -d 0 -p AODV -e 102 -c 2 -a 0 -i 0 -k MAC
r -t 1.017609221 -s 0 -d 0 -p AODV -e 44 -c 2 -a 0 -i 0 -k MAC
+ -t 1.017619221 -s 0 -d -1 -p ACK -e 38 -c 2 -a 0 -i 0 -k MAC 
- -t 1.017619221 -s 0 -d -1 -p ACK -e 38 -c 2 -a 0 -i 0 -k MAC
h -t 1.017619221 -s 0 -d -1 -p ACK -e 38 -c 2 -a 0 -i 0 -k MAC
+ -t 1.017634221 -s 0 -d 4 -p cbr -e 3020 -c 2 -a 0 -i 0 -k RTR 
- -t 1.017634221 -s 0 -d 4 -p cbr -e 3020 -c 2 -a 0 -i 0 -k RTR
h -t 1.017634221 -s 0 -d 4 -p cbr -e 3020 -c 2 -a 0 -i 0 -k RTR
r -t 1.017924054 -s 4 -d -1 -p ACK -e 38 -c 2 -a 0 -i 0 -k MAC
+ -t 1.018373221 -s 0 -d -1 -p RTS -e 44 -c 2 -a 0 -i 0 -k MAC 
- -t 1.018373221 -s 0 -d -1 -p RTS -e 44 -c 2 -a 0 -i 0 -k MAC
h -t 1.018373221 -s 0 -d -1 -p RTS -e 44 -c 2 -a 0 -i 0 -k MAC
r -t 1.018726054 -s 4 -d -1 -p RTS -e 44 -c 2 -a 0 -i 0 -k MAC
+ -t 1.018736054 -s 4 -d -1 -p CTS -e 38 -c 2 -a 0 -i 0 -k MAC 
- -t 1.018736054 -s 4 -d -1 -p CTS -e 38 -c 2 -a 0 -i 0 -k MAC
h -t 1.018736054 -s 4 -d -1 -p CTS -e 38 -c 2 -a 0 -i 0 -k MAC
r -t 1.019040888 -s 0 -d -1 -p CTS -e 38 -c 2 -a 0 -i 0 -k MAC
+ -t 1.019050888 -s 0 -d 4 -p cbr -e 3078 -c 2 -a 0 -i 0 -k MAC 
- -t 1.019050888 -s 0 -d 4 -p cbr -e 3078 -c 2 -a 0 -i 0 -k MAC
h -t 1.019050888 -s 0 -d 4 -p cbr -e 3078 -c 2 -a 0 -i 0 -k MAC
+ -t 1.030000000 -s 0 -d -1 -p cbr -e 3000 -c 2 -a 0 -i 1 -k AGT 
- -t 1.030000000 -s 0 -d -1 -p cbr -e 3000 -c 2 -a 0 -i 1 -k AGT
h -t 1.030000000 -s 0 -d -1 -p cbr -e 3000 -c 2 -a 0 -i 1 -k AGT
+ -t 1.030000000 -s 0 -d 4 -p cbr -e 3020 -c 2 -a 0 -i 1 -k RTR 
- -t 1.030000000 -s 0 -d 4 -p cbr -e 3020 -c 2 -a 0 -i 1 -k RTR
h -t 1.030000000 -s 0 -d 4 -p cbr -e 3020 -c 2 -a 0 -i 1 -k RTR
r -t 1.043675721 -s 4 -d 4 -p cbr -e 3020 -c 2 -a 0 -i 0 -k MAC
+ -t 1.043685721 -s 4 -d -1 -p ACK -e 38 -c 2 -a 0 -i 0 -k MAC 
- -t 1.043685721 -s 4 -d -1 -p ACK -e 38 -c 2 -a 0 -i 0 -k MAC
h -t 1.043685721 -s 4 -d -1 -p ACK -e 38 -c 2 -a 0 -i 0 -k MAC
+ -t 1.043700721 -s 4 -d 5 -p cbr -e 3020 -c 2 -a 0 -i 0 -k RTR 
- -t 1.043700721 -s 4 -d 5 -p cbr -e 3020 -c 2 -a 0 -i 0 -k RTR
h -t 1.043700721 -s 4 -d 5 -p cbr -e 3020 -c 2 -a 0 -i 0 -k RTR
r -t 1.043990554 -s 0 -d -1 -p ACK -e 38 -c 2 -a 0 -i 0 -k MAC
+ -t 1.044199721 -s 4 -d -1 -p RTS -e 44 -c 2 -a 0 -i 0 -k MAC 
- -t 1.044199721 -s 4 -d -1 -p RTS -e 44 -c 2 -a 0 -i 0 -k MAC
h -t 1.044199721 -s 4 -d -1 -p RTS -e 44 -c 2 -a 0 -i 0 -k MAC
r -t 1.044552554 -s 5 -d -1 -p RTS -e 44 -c 2 -a 0 -i 0 -k MAC
+ -t 1.044562554 -s 5 -d -1 -p CTS -e 38 -c 2 -a 0 -i 0 -k MAC 
- -t 1.044562554 -s 5 -d -1 -p CTS -e 38 -c 2 -a 0 -i 0 -k MAC
h -t 1.044562554 -s 5 -d -1 -p CTS -e 38 -c 2 -a 0 -i 0 -k MAC
r -t 1.044867388 -s 4 -d -1 -p CTS -e 38 -c 2 -a 0 -i 0 -k MAC
+ -t 1.044877388 -s 4 -d 5 -p cbr -e 3078 -c 2 -a 0 -i 0 -k MAC 
- -t 1.044877388 -s 4 -d 5 -p cbr -e 3078 -c 2 -a 0 -i 0 -k MAC
h -t 1.044877388 -s 4 -d 5 -p cbr -e 3078 -c 2 -a 0 -i 0 -k MAC
+ -t 1.060000000 -s 0 -d -1 -p cbr -e 3000 -c 2 -a 0 -i 2 -k AGT 
- -t 1.060000000 -s 0 -d -1 -p cbr -e 3000 -c 2 -a 0 -i 2 -k AGT
h -t 1.060000000 -s 0 -d -1 -p cbr -e 3000 -c 2 -a 0 -i 2 -k AGT
+ -t 1.060000000 -s 0 -d 4 -p cbr -e 3020 -c 2 -a 0 -i 2 -k RTR 
- -t 1.060000000 -s 0 -d 4 -p cbr -e 3020 -c 2 -a 0 -i 2 -k RTR
h -t 1.060000000 -s 0 -d 4 -p cbr -e 3020 -c 2 -a 0 -i 2 -k RTR
r -t 1.069502221 -s 5 -d 5 -p cbr -e 3020 -c 2 -a 0 -i 0 -k MAC
+ -t 1.069512221 -s 5 -d -1 -p ACK -e 38 -c 2 -a 0 -i 0 -k MAC 
- -t 1.069512221 -s 5 -d -1 -p ACK -e 38 -c 2 -a 0 -i 0 -k MAC
h -t 1.069512221 -s 5 -d -1 -p ACK -e 38 -c 2 -a 0 -i 0 -k MAC
r -t 1.069527221 -s 5 -d 5 -p cbr -e 3020 -c 2 -a 0 -i 0 -k AGT
r -t 1.069817054 -s 4 -d -1 -p ACK -e 38 -c 2 -a 0 -i 0 -k MAC
+ -t 1.070451554 -s 0 -d -1 -p RTS -e 44 -c 2 -a 0 -i 0 -k MAC 
- -t 1.070451554 -s 0 -d -1 -p RTS -e 44 -c 2 -a 0 -i 0 -k MAC
h -t 1.070451554 -s 0 -d -1 -p RTS -e 44 -c 2 -a 0 -i 0 -k MAC
r -t 1.070804388 -s 4 -d -1 -p RTS -e 44 -c 2 -a 0 -i 0 -k MAC
+ -t 1.070814388 -s 4 -d -1 -p CTS -e 38 -c 2 -a 0 -i 0 -k MAC 
- -t 1.070814388 -s 4 -d -1 -p CTS -e 38 -c 2 -a 0 -i 0 -k MAC
h -t 1.070814388 -s 4 -d -1 -p CTS -e 38 -c 2 -a 0 -i 0 -k MAC
r -t 1.071119221 -s 0 -d -1 -p CTS -e 38 -c 2 -a 0 -i 0 -k MAC
+ -t 1.071129221 -s 0 -d 4 -p cbr -e 3078 -c 2 -a 0 -i 1 -k MAC 
- -t 1.071129221 -s 0 -d 4 -p cbr -e 3078 -c 2 -a 0 -i 1 -k MAC
h -t 1.071129221 -s 0 -d 4 -p cbr -e 3078 -c 2 -a 0 -i 1 -k MAC
+ -t 1.090000000 -s 0 -d -1 -p cbr -e 3000 -c 2 -a 0 -i 3 -k AGT 
- -t 1.090000000 -s 0 -d -1 -p cbr -e 3000 -c 2 -a 0 -i 3 -k AGT
h -t 1.090000000 -s 0 -d -1 -p cbr -e 3000 -c 2 -a 0 -i 3 -k AGT
+ -t 1.090000000 -s 0 -d 4 -p cbr -e 3020 -c 2 -a 0 -i 3 -k RTR 
- -t 1.090000000 -s 0 -d 4 -p cbr -e 3020 -c 2 -a 0 -i 3 -k RTR
h -t 1.090000000 -s 0 -d 4 -p cbr -e 3020 -c 2 -a 0 -i 3 -k RTR
r -t 1.095754054 -s 4 -d 4 -p cbr -e 3020 -c 2 -a 0 -i 1 -k MAC
+ -t 1.095764054 -s 4 -d -1 -p ACK -e 38 -c 2 -a 0 -i 0 -k MAC 
- -t 1.095764054 -s 4 -d -1 -p ACK -e 38 -c 2 -a 0 -i 0 -k MAC
h -t 1.095764054 -s 4 -d -1 -p ACK -e 38 -c 2 -a 0 -i 0 -k MAC
+ -t 1.095779054 -s 4 -d 5 -p cbr -e 3020 -c 2 -a 0 -i 1 -k RTR 
- -t 1.095779054 -s 4 -d 5 -p cbr -e 3020 -c 2 -a 0 -i 1 -k RTR
h -t 1.095779054 -s 4 -d 5 -p cbr -e 3020 -c 2 -a 0 -i 1 -k RTR
r -t 1.096068888 -s 0 -d -1 -p ACK -e 38 -c 2 -a 0 -i 0 -k MAC
+ -t 1.096418054 -s 4 -d -1 -p RTS -e 44 -c 2 -a 0 -i 0 -k MAC 
- -t 1.096418054 -s 4 -d -1 -p RTS -e 44 -c 2 -a 0 -i 0 -k MAC
h -t 1.096418054 -s 4 -d -1 -p RTS -e 44 -c 2 -a 0 -i 0 -k MAC
r -t 1.096770888 -s 5 -d -1 -p RTS -e 44 -c 2 -a 0 -i 0 -k MAC
+ -t 1.096780888 -s 5 -d -1 -p CTS -e 38 -c 2 -a 0 -i 0 -k MAC 
- -t 1.096780888 -s 5 -d -1 -p CTS -e 38 -c 2 -a 0 -i 0 -k MAC
h -t 1.096780888 -s 5 -d -1 -p CTS -e 38 -c 2 -a 0 -i 0 -k MAC
r -t 1.097085721 -s 4 -d -1 -p CTS -e 38 -c 2 -a 0 -i 0 -k MAC
+ -t 1.097095721 -s 4 -d 5 -p cbr -e 3078 -c 2 -a 0 -i 1 -k MAC 
- -t 1.097095721 -s 4 -d 5 -p cbr -e 3078 -c 2 -a 0 -i 1 -k MAC
h -t 1.097095721 -s 4 -d 5 -p cbr -e 3078 -c 2 -a 0 -i 1 -k MAC
+ -t 1.120000000 -s 0 -d -1 -p cbr -e 3000 -c 2 -a 0 -i 4 -k AGT 
- -t 1.120000000 -s 0 -d -1 -p cbr -e 3000 -c 2 -a 0 -i 4 -k AGT
h -t 1.120000000 -s 0 -d -1 -p cbr -e 3000 -c 2 -a 0 -i 4 -k AGT
+ -t 1.120000000 -s 0 -d 4 -p cbr -e 3020 -c 2 -a 0 -i 4 -k RTR 
- -t 1.120000000 -s 0 -d 4 -p cbr -e 3020 -c 2 -a 0 -i 4 -k RTR
h -t 1.120000000 -s 0 -d 4 -p cbr -e 3020 -c 2 -a 0 -i 4 -k RTR
r -t 1.121720554 -s 5 -d 5 -p cbr -e 3020 -c 2 -a 0 -i 1 -k MAC
+ -t 1.121730554 -s 5 -d -1 -p ACK -e 38 -c 2 -a 0 -i 0 -k MAC 
- -t 1.121730554 -s 5 -d -1 -p ACK -e 38 -c 2 -a 0 -i 0 -k MAC
h -t 1.121730554 -s 5 -d -1 -p ACK -e 38 -c 2 -a 0 -i 0 -k MAC
r -t 1.121745554 -s 5 -d 5 -p cbr -e 3020 -c 2 -a 0 -i 1 -k AGT
r -t 1.122035388 -s 4 -d -1 -p ACK -e 38 -c 2 -a 0 -i 0 -k MAC
+ -t 1.122529888 -s 0 -d -1 -p RTS -e 44 -c 2 -a 0 -i 0 -k MAC 
- -t 1.122529888 -s 0 -d -1 -p RTS -e 44 -c 2 -a 0 -i 0 -k MAC
h -t 1.122529888 -s 0 -d -1 -p RTS -e 44 -c 2 -a 0 -i 0 -k MAC
r -t 1.122882721 -s 4 -d -1 -p RTS -e 44 -c 2 -a 0 -i 0 -k MAC
+ -t 1.122892721 -s 4 -d -1 -p CTS -e 38 -c 2 -a 0 -i 0 -k MAC 
- -t 1.122892721 -s 4 -d -1 -p CTS -e 38 -c 2 -a 0 -i 0 -k MAC
h -t 1.122892721 -s 4 -d -1 -p CTS -e 38 -c 2 -a 0 -i 0 -k MAC
r -t 1.123197554 -s 0 -d -1 -p CTS -e 38 -c 2 -a 0 -i 0 -k MAC
+ -t 1.123207554 -s 0 -d 4 -p cbr -e 3078 -c 2 -a 0 -i 2 -k MAC 
- -t 1.123207554 -s 0 -d 4 -p cbr -e 3078 -c 2 -a 0 -i 2 -k MAC
h -t 1.123207554 -s 0 -d 4 -p cbr -e 3078 -c 2 -a 0 -i 2 -k MAC
r -t 1.147832388 -s 4 -d 4 -p cbr -e 3020 -c 2 -a 0 -i 2 -k MAC
+ -t 1.147842388 -s 4 -d -1 -p ACK -e 38 -c 2 -a 0 -i 0 -k MAC 
- -t 1.147842388 -s 4 -d -1 -p ACK -e 38 -c 2 -a 0 -i 0 -k MAC
h -t 1.147842388 -s 4 -d -1 -p ACK -e 38 -c 2 -a 0 -i 0 -k MAC
+ -t 1.147857388 -s 4 -d 5 -p cbr -e 3020 -c 2 -a 0 -i 2 -k RTR 
- -t 1.147857388 -s 4 -d 5 -p cbr -e 3020 -c 2 -a 0 -i 2 -k RTR
h -t 1.147857388 -s 4 -d 5 -p cbr -e 3020 -c 2 -a 0 -i 2 -k RTR
r -t 1.148147221 -s 0 -d -1 -p ACK -e 38 -c 2 -a 0 -i 0 -k MAC
+ -t 1.148276388 -s 4 -d -1 -p RTS -e 44 -c 2 -a 0 -i 0 -k MAC 
- -t 1.148276388 -s 4 -d -1 -p RTS -e 44 -c 2 -a 0 -i 0 -k MAC
h -t 1.148276388 -s 4 -d -1 -p RTS -e 44 -c 2 -a 0 -i 0 -k MAC
r -t 1.148629221 -s 5 -d -1 -p RTS -e 44 -c 2 -a 0 -i 0 -k MAC
+ -t 1.148639221 -s 5 -d -1 -p CTS -e 38 -c 2 -a 0 -i 0 -k MAC 
- -t 1.148639221 -s 5 -d -1 -p CTS -e 38 -c 2 -a 0 -i 0 -k MAC
h -t 1.148639221 -s 5 -d -1 -p CTS -e 38 -c 2 -a 0 -i 0 -k MAC
r -t 1.148944054 -s 4 -d -1 -p CTS -e 38 -c 2 -a 0 -i 0 -k MAC
+ -t 1.148954054 -s 4 -d 5 -p cbr -e 3078 -c 2 -a 0 -i 2 -k MAC 
- -t 1.148954054 -s 4 -d 5 -p cbr -e 3078 -c 2 -a 0 -i 2 -k MAC
h -t 1.148954054 -s 4 -d 5 -p cbr -e 3078 -c 2 -a 0 -i 2 -k MAC
+ -t 1.150000000 -s 0 -d -1 -p cbr -e 3000 -c 2 -a 0 -i 5 -k AGT 
- -t 1.150000000 -s 0 -d -1 -p cbr -e 3000 -c 2 -a 0 -i 5 -k AGT
h -t 1.150000000 -s 0 -d -1 -p cbr -e 3000 -c 2 -a 0 -i 5 -k AGT
+ -t 1.150000000 -s 0 -d 4 -p cbr -e 3020 -c 2 -a 0 -i 5 -k RTR 
- -t 1.150000000 -s 0 -d 4 -p cbr -e 3020 -c 2 -a 0 -i 5 -k RTR
h -t 1.150000000 -s 0 -d 4 -p cbr -e 3020 -c 2 -a 0 -i 5 -k RTR
r -t 1.173578888 -s 5 -d 5 -p cbr -e 3020 -c 2 -a 0 -i 2 -k MAC
+ -t 1.173588888 -s 5 -d -1 -p ACK -e 38 -c 2 -a 0 -i 0 -k MAC 
- -t 1.173588888 -s 5 -d -1 -p ACK -e 38 -c 2 -a 0 -i 0 -k MAC
h -t 1.173588888 -s 5 -d -1 -p ACK -e 38 -c 2 -a 0 -i 0 -k MAC
r -t 1.173603888 -s 5 -d 5 -p cbr -e 3020 -c 2 -a 0 -i 2 -k AGT
r -t 1.173893721 -s 4 -d -1 -p ACK -e 38 -c 2 -a 0 -i 0 -k MAC
+ -t 1.174528221 -s 0 -d -1 -p RTS -e 44 -c 2 -a 0 -i 0 -k MAC 
- -t 1.174528221 -s 0 -d -1 -p RTS -e 44 -c 2 -a 0 -i 0 -k MAC
h -t 1.174528221 -s 0 -d -1 -p RTS -e 44 -c 2 -a 0 -i 0 -k MAC
r -t 1.174881054 -s 4 -d -1 -p RTS -e 44 -c 2 -a 0 -i 0 -k MAC
+ -t 1.174891054 -s 4 -d -1 -p CTS -e 38 -c 2 -a 0 -i 0 -k MAC 
- -t 1.174891054 -s 4 -d -1 -p CTS -e 38 -c 2 -a 0 -i 0 -k MAC
h -t 1.174891054 -s 4 -d -1 -p CTS -e 38 -c 2 -a 0 -i 0 -k MAC
r -t 1.175195888 -s 0 -d -1 -p CTS -e 38 -c 2 -a 0 -i 0 -k MAC
+ -t 1.175205888 -s 0 -d 4 -p cbr -e 3078 -c 2 -a 0 -i 3 -k MAC 
- -t 1.175205888 -s 0 -d 4 -p cbr -e 3078 -c 2 -a 0 -i 3 -k MAC
h -t 1.175205888 -s 0 -d 4 -p cbr -e 3078 -c 2 -a 0 -i 3 -k MAC
+ -t 1.180000000 -s 0 -d -1 -p cbr -e 3000 -c 2 -a 0 -i 6 -k AGT 
- -t 1.180000000 -s 0 -d -1 -p cbr -e 3000 -c 2 -a 0 -i 6 -k AGT
h -t 1.180000000 -s 0 -d -1 -p cbr -e 3000 -c 2 -a 0 -i 6 -k AGT
+ -t 1.180000000 -s 0 -d 4 -p cbr -e 3020 -c 2 -a 0 -i 6 -k RTR 
- -t 1.180000000 -s 0 -d 4 -p cbr -e 3020 -c 2 -a 0 -i 6 -k RTR
h -t 1.180000000 -s 0 -d 4 -p cbr -e 3020 -c 2 -a 0 -i 6 -k RTR
r -t 1.199830721 -s 4 -d 4 -p cbr -e 3020 -c 2 -a 0 -i 3 -k MAC
+ -t 1.199840721 -s 4 -d -1 -p ACK -e 38 -c 2 -a 0 -i 0 -k MAC 
- -t 1.199840721 -s 4 -d -1 -p ACK -e 38 -c 2 -a 0 -i 0 -k MAC
h -t 1.199840721 -s 4 -d -1 -p ACK -e 38 -c 2 -a 0 -i 0 -k MAC
+ -t 1.199855721 -s 4 -d 5 -p cbr -e 3020 -c 2 -a 0 -i 3 -k RTR 
- -t 1.199855721 -s 4 -d 5 -p cbr -e 3020 -c 2 -a 0 -i 3 -k RTR
h -t 1.199855721 -s 4 -d 5 -p cbr -e 3020 -c 2 -a 0 -i 3 -k RTR
r -t 1.200145554 -s 0 -d -1 -p ACK -e 38 -c 2 -a 0 -i 0 -k MAC
+ -t 1.200294721 -s 4 -d -1 -p RTS -e 44 -c 2 -a 0 -i 0 -k MAC 
- -t 1.200294721 -s 4 -d -1 -p RTS -e 44 -c 2 -a 0 -i 0 -k MAC
h -t 1.200294721 -s 4 -d -1 -p RTS -e 44 -c 2 -a 0 -i 0 -k MAC
r -t 1.200647554 -s 5 -d -1 -p RTS -e 44 -c 2 -a 0 -i 0 -k MAC
+ -t 1.200657554 -s 5 -d -1 -p CTS -e 38 -c 2 -a 0 -i 0 -k MAC 
- -t 1.200657554 -s 5 -d -1 -p CTS -e 38 -c 2 -a 0 -i 0 -k MAC
h -t 1.200657554 -s 5 -d -1 -p CTS -e 38 -c 2 -a 0 -i 0 -k MAC
r -t 1.200962388 -s 4 -d -1 -p CTS -e 38 -c 2 -a 0 -i 0 -k MAC
+ -t 1.200972388 -s 4 -d 5 -p cbr -e 3078 -c 2 -a 0 -i 3 -k MAC 
- -t 1.200972388 -s 4 -d 5 -p cbr -e 3078 -c 2 -a 0 -i 3 -k MAC
h -t 1.200972388 -s 4 -d 5 -p cbr -e 3078 -c 2 -a 0 -i 3 -k MAC
+ -t 1.210000000 -s 0 -d -1 -p cbr -e 3000 -c 2 -a 0 -i 7 -k AGT 
- -t 1.210000000 -s 0 -d -1 -p cbr -e 3000 -c 2 -a 0 -i 7 -k AGT
h -t 1.210000000 -s 0 -d -1 -p cbr -e 3000 -c 2 -a 0 -i 7 -k AGT
+ -t 1.210000000 -s 0 -d 4 -p cbr -e 3020 -c 2 -a 0 -i 7 -k RTR 
- -t 1.210000000 -s 0 -d 4 -p cbr -e 3020 -c 2 -a 0 -i 7 -k RTR
h -t 1.210000000 -s 0 -d 4 -p cbr -e 3020 -c 2 -a 0 -i 7 -k RTR
r -t 1.225597221 -s 5 -d 5 -p cbr -e 3020 -c 2 -a 0 -i 3 -k MAC
+ -t 1.225607221 -s 5 -d -1 -p ACK -e 38 -c 2 -a 0 -i 0 -k MAC 
- -t 1.225607221 -s 5 -d -1 -p ACK -e 38 -c 2 -a 0 -i 0 -k MAC
h -t 1.225607221 -s 5 -d -1 -p ACK -e 38 -c 2 -a 0 -i 0 -k MAC
r -t 1.225622221 -s 5 -d 5 -p cbr -e 3020 -c 2 -a 0 -i 3 -k AGT
r -t 1.225912054 -s 4 -d -1 -p ACK -e 38 -c 2 -a 0 -i 0 -k MAC
+ -t 1.226766554 -s 0 -d -1 -p RTS -e 44 -c 2 -a 0 -i 0 -k MAC 
- -t 1.226766554 -s 0 -d -1 -p RTS -e 44 -c 2 -a 0 -i 0 -k MAC
h -t 1.226766554 -s 0 -d -1 -p RTS -e 44 -c 2 -a 0 -i 0 -k MAC
r -t 1.227119388 -s 4 -d -1 -p RTS -e 44 -c 2 -a 0 -i 0 -k MAC
+ -t 1.227129388 -s 4 -d -1 -p CTS -e 38 -c 2 -a 0 -i 0 -k MAC 
- -t 1.227129388 -s 4 -d -1 -p CTS -e 38 -c 2 -a 0 -i 0 -k MAC
h -t 1.227129388 -s 4 -d -1 -p CTS -e 38 -c 2 -a 0 -i 0 -k MAC
r -t 1.227434221 -s 0 -d -1 -p CTS -e 38 -c 2 -a 0 -i 0 -k MAC
+ -t 1.227444221 -s 0 -d 4 -p cbr -e 3078 -c 2 -a 0 -i 4 -k MAC 
- -t 1.227444221 -s 0 -d 4 -p cbr -e 3078 -c 2 -a 0 -i 4 -k MAC
h -t 1.227444221 -s 0 -d 4 -p cbr -e 3078 -c 2 -a 0 -i 4 -k MAC
+ -t 1.240000000 -s 0 -d -1 -p cbr -e 3000 -c 2 -a 0 -i 8 -k AGT 
- -t 1.240000000 -s 0 -d -1 -p cbr -e 3000 -c 2 -a 0 -i 8 -k AGT
h -t 1.240000000 -s 0 -d -1 -p cbr -e 3000 -c 2 -a 0 -i 8 -k AGT
+ -t 1.240000000 -s 0 -d 4 -p cbr -e 3020 -c 2 -a 0 -i 8 -k RTR 
- -t 1.240000000 -s 0 -d 4 -p cbr -e 3020 -c 2 -a 0 -i 8 -k RTR
h -t 1.240000000 -s 0 -d 4 -p cbr -e 3020 -c 2 -a 0 -i 8 -k RTR
r -t 1.252069054 -s 4 -d 4 -p cbr -e 3020 -c 2 -a 0 -i 4 -k MAC
+ -t 1.252079054 -s 4 -d -1 -p ACK -e 38 -c 2 -a 0 -i 0 -k MAC 
- -t 1.252079054 -s 4 -d -1 -p ACK -e 38 -c 2 -a 0 -i 0 -k MAC
h -t 1.252079054 -s 4 -d -1 -p ACK -e 38 -c 2 -a 0 -i 0 -k MAC
+ -t 1.252094054 -s 4 -d 5 -p cbr -e 3020 -c 2 -a 0 -i 4 -k RTR 
- -t 1.252094054 -s 4 -d 5 -p cbr -e 3020 -c 2 -a 0 -i 4 -k RTR
h -t 1.252094054 -s 4 -d 5 -p cbr -e 3020 -c 2 -a 0 -i 4 -k RTR
r -t 1.252383888 -s 0 -d -1 -p ACK -e 38 -c 2 -a 0 -i 0 -k MAC
+ -t 1.252633054 -s 4 -d -1 -p RTS -e 44 -c 2 -a 0 -i 0 -k MAC 
- -t 1.252633054 -s 4 -d -1 -p RTS -e 44 -c 2 -a 0 -i 0 -k MAC
h -t 1.252633054 -s 4 -d -1 -p RTS -e 44 -c 2 -a 0 -i 0 -k MAC
r -t 1.252985888 -s 5 -d -1 -p RTS -e 44 -c 2 -a 0 -i 0 -k MAC
+ -t 1.252995888 -s 5 -d -1 -p CTS -e 38 -c 2 -a 0 -i 0 -k MAC 
- -t 1.252995888 -s 5 -d -1 -p CTS -e 38 -c 2 -a 0 -i 0 -k MAC
h -t 1.252995888 -s 5 -d -1 -p CTS -e 38 -c 2 -a 0 -i 0 -k MAC
r -t 1.253300721 -s 4 -d -1 -p CTS -e 38 -c 2 -a 0 -i 0 -k MAC
+ -t 1.253310721 -s 4 -d 5 -p cbr -e 3078 -c 2 -a 0 -i 4 -k MAC 
- -t 1.253310721 -s 4 -d 5 -p cbr -e 3078 -c 2 -a 0 -i 4 -k MAC
h -t 1.253310721 -s 4 -d 5 -p cbr -e 3078 -c 2 -a 0 -i 4 -k MAC
+ -t 1.270000000 -s 0 -d -1 -p cbr -e 3000 -c 2 -a 0 -i 9 -k AGT 
- -t 1.270000000 -s 0 -d -1 -p cbr -e 3000 -c 2 -a 0 -i 9 -k AGT
h -t 1.270000000 -s 0 -d -1 -p cbr -e 3000 -c 2 -a 0 -i 9 -k AGT
+ -t 1.270000000 -s 0 -d 4 -p cbr -e 3020 -c 2 -a 0 -i 9 -k RTR 
- -t 1.270000000 -s 0 -d 4 -p cbr -e 3020 -c 2 -a 0 -i 9 -k RTR
h -t 1.270000000 -s 0 -d 4 -p cbr -e 3020 -c 2 -a 0 -i 9 -k RTR
r -t 1.277935554 -s 5 -d 5 -p cbr -e 3020 -c 2 -a 0 -i 4 -k MAC
+ -t 1.277945554 -s 5 -d -1 -p ACK -e 38 -c 2 -a 0 -i 0 -k MAC 
- -t 1.277945554 -s 5 -d -1 -p ACK -e 38 -c 2 -a 0 -i 0 -k MAC
h -t 1.277945554 -s 5 -d -1 -p ACK -e 38 -c 2 -a 0 -i 0 -k MAC
r -t 1.277960554 -s 5 -d 5 -p cbr -e 3020 -c 2 -a 0 -i 4 -k AGT
r -t 1.278250388 -s 4 -d -1 -p ACK -e 38 -c 2 -a 0 -i 0 -k MAC
+ -t 1.279064888 -s 0 -d -1 -p RTS -e 44 -c 2 -a 0 -i 0 -k MAC 
- -t 1.279064888 -s 0 -d -1 -p RTS -e 44 -c 2 -a 0 -i 0 -k MAC
h -t 1.279064888 -s 0 -d -1 -p RTS -e 44 -c 2 -a 0 -i 0 -k MAC
r -t 1.279417721 -s 4 -d -1 -p RTS -e 44 -c 2 -a 0 -i 0 -k MAC
+ -t 1.279427721 -s 4 -d -1 -p CTS -e 38 -c 2 -a 0 -i 0 -k MAC 
- -t 1.279427721 -s 4 -d -1 -p CTS -e 38 -c 2 -a 0 -i 0 -k MAC
h -t 1.279427721 -s 4 -d -1 -p CTS -e 38 -c 2 -a 0 -i 0 -k MAC
r -t 1.279732554 -s 0 -d -1 -p CTS -e 38 -c 2 -a 0 -i 0 -k MAC
+ -t 1.279742554 -s 0 -d 4 -p cbr -e 3078 -c 2 -a 0 -i 5 -k MAC 
- -t 1.279742554 -s 0 -d 4 -p cbr -e 3078 -c 2 -a 0 -i 5 -k MAC
h -t 1.279742554 -s 0 -d 4 -p cbr -e 3078 -c 2 -a 0 -i 5 -k MAC
+ -t 1.300000000 -s 0 -d -1 -p cbr -e 3000 -c 2 -a 0 -i 10 -k AGT 
- -t 1.300000000 -s 0 -d -1 -p cbr -e 3000 -c 2 -a 0 -i 10 -k AGT
h -t 1.300000000 -s 0 -d -1 -p cbr -e 3000 -c 2 -a 0 -i 10 -k AGT
+ -t 1.300000000 -s 0 -d 4 -p cbr -e 3020 -c 2 -a 0 -i 10 -k RTR 
- -t 1.300000000 -s 0 -d 4 -p cbr -e 3020 -c 2 -a 0 -i 10 -k RTR
h -t 1.300000000 -s 0 -d 4 -p cbr -e 3020 -c 2 -a 0 -i 10 -k RTR
r -t 1.304367388 -s 4 -d 4 -p cbr -e 3020 -c 2 -a 0 -i 5 -k MAC
+ -t 1.304377388 -s 4 -d -1 -p ACK -e 38 -c 2 -a 0 -i 0 -k MAC 
- -t 1.304377388 -s 4 -d -1 -p ACK -e 38 -c 2 -a 0 -i 0 -k MAC
h -t 1.304377388 -s 4 -d -1 -p ACK -e 38 -c 2 -a 0 -i 0 -k MAC
+ -t 1.304392388 -s 4 -d 5 -p cbr -e 3020 -c 2 -a 0 -i 5 -k RTR 
- -t 1.304392388 -s 4 -d 5 -p cbr -e 3020 -c 2 -a 0 -i 5 -k RTR
h -t 1.304392388 -s 4 -d 5 -p cbr -e 3020 -c 2 -a 0 -i 5 -k RTR
r -t 1.304682221 -s 0 -d -1 -p ACK -e 38 -c 2 -a 0 -i 0 -k MAC
+ -t 1.304851388 -s 4 -d -1 -p RTS -e 44 -c 2 -a 0 -i 0 -k MAC 
- -t 1.304851388 -s 4 -d -1 -p RTS -e 44 -c 2 -a 0 -i 0 -k MAC
h -t 1.304851388 -s 4 -d -1 -p RTS -e 44 -c 2 -a 0 -i 0 -k MAC
r -t 1.305204221 -s 5 -d -1 -p RTS -e 44 -c 2 -a 0 -i 0 -k MAC
+ -t 1.305214221 -s 5 -d -1 -p CTS -e 38 -c 2 -a 0 -i 0 -k MAC 
- -t 1.305214221 -s 5 -d -1 -p CTS -e 38 -c 2 -a 0 -i 0 -k MAC
h -t 1.305214221 -s 5 -d -1 -p CTS -e 38 -c 2 -a 0 -i 0 -k MAC
r -t 1.305519054 -s 4 -d -1 -p CTS -e 38 -c 2 -a 0 -i 0 -k MAC
+ -t 1.305529054 -s 4 -d 5 -p cbr -e 3078 -c 2 -a 0 -i 5 -k MAC 
- -t 1.305529054 -s 4 -d 5 -p cbr -e 3078 -c 2 -a 0 -i 5 -k MAC
h -t 1.305529054 -s 4 -d 5 -p cbr -e 3078 -c 2 -a 0 -i 5 -k MAC
+ -t 1.330000000 -s 0 -d -1 -p cbr -e 3000 -c 2 -a 0 -i 11 -k AGT 
- -t 1.330000000 -s 0 -d -1 -p cbr -e 3000 -c 2 -a 0 -i 11 -k AGT
h -t 1.330000000 -s 0 -d -1 -p cbr -e 3000 -c 2 -a 0 -i 11 -k AGT
+ -t 1.330000000 -s 0 -d 4 -p cbr -e 3020 -c 2 -a 0 -i 11 -k RTR 
- -t 1.330000000 -s 0 -d 4 -p cbr -e 3020 -c 2 -a 0 -i 11 -k RTR
h -t 1.330000000 -s 0 -d 4 -p cbr -e 3020 -c 2 -a 0 -i 11 -k RTR
r -t 1.330153888 -s 5 -d 5 -p cbr -e 3020 -c 2 -a 0 -i 5 -k MAC
+ -t 1.330163888 -s 5 -d -1 -p ACK -e 38 -c 2 -a 0 -i 0 -k MAC 
- -t 1.330163888 -s 5 -d -1 -p ACK -e 38 -c 2 -a 0 -i 0 -k MAC
h -t 1.330163888 -s 5 -d -1 -p ACK -e 38 -c 2 -a 0 -i 0 -k MAC
r -t 1.330178888 -s 5 -d 5 -p cbr -e 3020 -c 2 -a 0 -i 5 -k AGT
r -t 1.330468721 -s 4 -d -1 -p ACK -e 38 -c 2 -a 0 -i 0 -k MAC
+ -t 1.331123221 -s 0 -d -1 -p RTS -e 44 -c 2 -a 0 -i 0 -k MAC 
- -t 1.331123221 -s 0 -d -1 -p RTS -e 44 -c 2 -a 0 -i 0 -k MAC
h -t 1.331123221 -s 0 -d -1 -p RTS -e 44 -c 2 -a 0 -i 0 -k MAC
r -t 1.331476054 -s 4 -d -1 -p RTS -e 44 -c 2 -a 0 -i 0 -k MAC
+ -t 1.331486054 -s 4 -d -1 -p CTS -e 38 -c 2 -a 0 -i 0 -k MAC 
- -t 1.331486054 -s 4 -d -1 -p CTS -e 38 -c 2 -a 0 -i 0 -k MAC
h -t 1.331486054 -s 4 -d -1 -p CTS -e 38 -c 2 -a 0 -i 0 -k MAC
r -t 1.331790888 -s 0 -d -1 -p CTS -e 38 -c 2 -a 0 -i 0 -k MAC
+ -t 1.331800888 -s 0 -d 4 -p cbr -e 3078 -c 2 -a 0 -i 6 -k MAC 
- -t 1.331800888 -s 0 -d 4 -p cbr -e 3078 -c 2 -a 0 -i 6 -k MAC
h -t 1.331800888 -s 0 -d 4 -p cbr -e 3078 -c 2 -a 0 -i 6 -k MAC
r -t 1.356425721 -s 4 -d 4 -p cbr -e 3020 -c 2 -a 0 -i 6 -k MAC
+ -t 1.356435721 -s 4 -d -1 -p ACK -e 38 -c 2 -a 0 -i 0 -k MAC 
- -t 1.356435721 -s 4 -d -1 -p ACK -e 38 -c 2 -a 0 -i 0 -k MAC
h -t 1.356435721 -s 4 -d -1 -p ACK -e 38 -c 2 -a 0 -i 0 -k MAC
+ -t 1.356450721 -s 4 -d 5 -p cbr -e 3020 -c 2 -a 0 -i 6 -k RTR 
- -t 1.356450721 -s 4 -d 5 -p cbr -e 3020 -c 2 -a 0 -i 6 -k RTR
h -t 1.356450721 -s 4 -d 5 -p cbr -e 3020 -c 2 -a 0 -i 6 -k RTR
r -t 1.356740554 -s 0 -d -1 -p ACK -e 38 -c 2 -a 0 -i 0 -k MAC