M 0.00000 0 (0.00, 0.00, 0.00), (200.00, 400.00), 3000.00
M 0.00000 1 (0.00, 0.00, 0.00), (400.00, 245.00), 3000.00
M 0.00000 2 (0.00, 0.00, 0.00), (400.00, 150.00), 3000.00
M 0.00000 3 (0.00, 0.00, 0.00), (400.00, 200.00), 3000.00
M 0.00000 4 (0.00, 0.00, 0.00), (400.00, 250.00), 3000.00
M 0.00000 5 (0.00, 0.00, 0.00), (600.00, 400.00), 3000.00
s 1.000000000 _0_ AGT  --- 0 cbr 3000 [0 0 0 0] ------- [0:2 5:0 32 0] [0] 0 0
r 1.000000000 _0_ RTR  --- 0 cbr 3000 [0 0 0 0] ------- [0:2 5:0 32 0] [0] 0 0
s 1.000000000 _0_ RTR  --- 0 AODV 48 [0 0 0 0] ------- [0:255 -1:255 30 0] [0x2 1 1 [5 0] [0 4]] (REQUEST)
s 1.000235000 _0_ MAC  --- 0 AODV 106 [0 ffffffff 0 800] ------- [0:255 -1:255 30 0] [0x2 1 1 [5 0] [0 4]] (REQUEST)
r 1.001083833 _4_ MAC  --- 0 AODV 48 [0 ffffffff 0 800] ------- [0:255 -1:255 30 0] [0x2 1 1 [5 0] [0 4]] (REQUEST)
r 1.001108833 _4_ RTR  --- 0 AODV 48 [0 ffffffff 0 800] ------- [0:255 -1:255 30 0] [0x2 1 1 [5 0] [0 4]] (REQUEST)
s 1.003454851 _4_ RTR  --- 0 AODV 48 [0 ffffffff 0 800] ------- [4:255 -1:255 29 0] [0x2 2 1 [5 0] [0 4]] (REQUEST)
s 1.003889851 _4_ MAC  --- 0 AODV 106 [0 ffffffff 4 800] ------- [4:255 -1:255 29 0] [0x2 2 1 [5 0] [0 4]] (REQUEST)
r 1.004737868 _1_ MAC  --- 0 AODV 48 [0 ffffffff 4 800] ------- [4:255 -1:255 29 0] [0x2 2 1 [5 0] [0 4]] (REQUEST)
r 1.004738018 _3_ MAC  --- 0 AODV 48 [0 ffffffff 4 800] ------- [4:255 -1:255 29 0] [0x2 2 1 [5 0] [0 4]] (REQUEST)
r 1.004738184 _2_ MAC  --- 0 AODV 48 [0 ffffffff 4 800] ------- [4:255 -1:255 29 0] [0x2 2 1 [5 0] [0 4]] (REQUEST)
r 1.004738684 _0_ MAC  --- 0 AODV 48 [0 ffffffff 4 800] ------- [4:255 -1:255 29 0] [0x2 2 1 [5 0] [0 4]] (REQUEST)
r 1.004738684 _5_ MAC  --- 0 AODV 48 [0 ffffffff 4 800] ------- [4:255 -1:255 29 0] [0x2 2 1 [5 0] [0 4]] (REQUEST)
r 1.004762868 _1_ RTR  --- 0 AODV 48 [0 ffffffff 4 800] ------- [4:255 -1:255 29 0] [0x2 2 1 [5 0] [0 4]] (REQUEST)
r 1.004763018 _3_ RTR  --- 0 AODV 48 [0 ffffffff 4 800] ------- [4:255 -1:255 29 0] [0x2 2 1 [5 0] [0 4]] (REQUEST)
r 1.004763184 _2_ RTR  --- 0 AODV 48 [0 ffffffff 4 800] ------- [4:255 -1:255 29 0] [0x2 2 1 [5 0] [0 4]] (REQUEST)
r 1.004763684 _0_ RTR  --- 0 AODV 48 [0 ffffffff 4 800] ------- [4:255 -1:255 29 0] [0x2 2 1 [5 0] [0 4]] (REQUEST)
r 1.004763684 _5_ RTR  --- 0 AODV 48 [0 ffffffff 4 800] ------- [4:255 -1:255 29 0] [0x2 2 1 [5 0] [0 4]] (REQUEST)
s 1.004763684 _5_ RTR  --- 0 AODV 44 [0 0 0 0] ------- [5:255 0:255 30 4] [0x4 1 [5 4] 10.000000] (REPLY)
s 1.004978684 _5_ MAC  --- 0 ARP 86 [0 ffffffff 5 806] ------- [REQUEST 5/5 0/4]
s 1.005191130 _2_ RTR  --- 0 AODV 48 [0 ffffffff 4 800] ------- [2:255 -1:255 28 0] [0x2 3 1 [5 0] [0 4]] (REQUEST)
r 1.005667518 _4_ MAC  --- 0 ARP 28 [0 ffffffff 5 806] ------- [REQUEST 5/5 0/4]
s 1.005797518 _4_ MAC  --- 0 RTS 44 [52e 5 4 0] 
r 1.006150351 _5_ MAC  --- 0 RTS 44 [52e 5 4 0] 
s 1.006160351 _5_ MAC  --- 0 CTS 38 [3f4 4 0 0] 
s 1.006404472 _3_ RTR  --- 0 AODV 48 [0 ffffffff 4 800] ------- [3:255 -1:255 28 0] [0x2 3 1 [5 0] [0 4]] (REQUEST)
r 1.006465184 _4_ MAC  --- 0 CTS 38 [3f4 4 0 0] 
s 1.006475184 _4_ MAC  --- 0 ARP 86 [13a 5 4 806] ------- [REPLY 4/4 5/5]
r 1.007164018 _5_ MAC  --- 0 ARP 28 [13a 5 4 806] ------- [REPLY 4/4 5/5]
s 1.007174018 _5_ MAC  --- 0 ACK 38 [0 4 0 0] 
r 1.007478851 _4_ MAC  --- 0 ACK 38 [0 4 0 0] 
s 1.007688018 _5_ MAC  --- 0 RTS 44 [5ae 4 5 0] 
r 1.008040851 _4_ MAC  --- 0 RTS 44 [5ae 4 5 0] 
s 1.008050851 _4_ MAC  --- 0 CTS 38 [474 5 0 0] 
r 1.008355684 _5_ MAC  --- 0 CTS 38 [474 5 0 0] 
s 1.008365684 _5_ MAC  --- 0 AODV 102 [13a 4 5 800] ------- [5:255 0:255 30 4] [0x4 1 [5 4] 10.000000] (REPLY)
r 1.009182518 _4_ MAC  --- 0 AODV 44 [13a 4 5 800] ------- [5:255 0:255 30 4] [0x4 1 [5 4] 10.000000] (REPLY)
s 1.009192518 _4_ MAC  --- 0 ACK 38 [0 5 0 0] 
r 1.009207518 _4_ RTR  --- 0 AODV 44 [13a 4 5 800] ------- [5:255 0:255 30 4] [0x4 1 [5 4] 10.000000] (REPLY)
f 1.009207518 _4_ RTR  --- 0 AODV 44 [13a 4 5 800] ------- [5:255 0:255 29 0] [0x4 2 [5 4] 10.000000] (REPLY)
r 1.009497351 _5_ MAC  --- 0 ACK 38 [0 5 0 0] 
s 1.009756627 _3_ MAC  --- 0 AODV 106 [0 ffffffff 3 800] ------- [3:255 -1:255 28 0] [0x2 3 1 [5 0] [0 4]] (REQUEST)
r 1.010604777 _1_ MAC  --- 0 AODV 48 [0 ffffffff 3 800] ------- [3:255 -1:255 28 0] [0x2 3 1 [5 0] [0 4]] (REQUEST)
r 1.010604794 _4_ MAC  --- 0 AODV 48 [0 ffffffff 3 800] ------- [3:255 -1:255 28 0] [0x2 3 1 [5 0] [0 4]] (REQUEST)
r 1.010604794 _2_ MAC  --- 0 AODV 48 [0 ffffffff 3 800] ------- [3:255 -1:255 28 0] [0x2 3 1 [5 0] [0 4]] (REQUEST)
r 1.010629777 _1_ RTR  --- 0 AODV 48 [0 ffffffff 3 800] ------- [3:255 -1:255 28 0] [0x2 3 1 [5 0] [0 4]] (REQUEST)
r 1.010629794 _4_ RTR  --- 0 AODV 48 [0 ffffffff 3 800] ------- [3:255 -1:255 28 0] [0x2 3 1 [5 0] [0 4]] (REQUEST)
r 1.010629794 _2_ RTR  --- 0 AODV 48 [0 ffffffff 3 800] ------- [3:255 -1:255 28 0] [0x2 3 1 [5 0] [0 4]] (REQUEST)
s 1.010794794 _4_ MAC  --- 0 ARP 86 [0 ffffffff 4 806] ------- [REQUEST 4/4 0/0]
r 1.011482810 _1_ MAC  --- 0 ARP 28 [0 ffffffff 4 806] ------- [REQUEST 4/4 0/0]
r 1.011482960 _3_ MAC  --- 0 ARP 28 [0 ffffffff 4 806] ------- [REQUEST 4/4 0/0]
r 1.011483127 _2_ MAC  --- 0 ARP 28 [0 ffffffff 4 806] ------- [REQUEST 4/4 0/0]
r 1.011483627 _0_ MAC  --- 0 ARP 28 [0 ffffffff 4 806] ------- [REQUEST 4/4 0/0]
r 1.011483627 _5_ MAC  --- 0 ARP 28 [0 ffffffff 4 806] ------- [REQUEST 4/4 0/0]
s 1.011593127 _2_ MAC  --- 0 AODV 106 [0 ffffffff 2 800] ------- [2:255 -1:255 28 0] [0x2 3 1 [5 0] [0 4]] (REQUEST)
r 1.012441294 _3_ MAC  --- 0 AODV 48 [0 ffffffff 2 800] ------- [2:255 -1:255 28 0] [0x2 3 1 [5 0] [0 4]] (REQUEST)
r 1.012441444 _1_ MAC  --- 0 AODV 48 [0 ffffffff 2 800] ------- [2:255 -1:255 28 0] [0x2 3 1 [5 0] [0 4]] (REQUEST)
r 1.012441460 _4_ MAC  --- 0 AODV 48 [0 ffffffff 2 800] ------- [2:255 -1:255 28 0] [0x2 3 1 [5 0] [0 4]] (REQUEST)
r 1.012466294 _3_ RTR  --- 0 AODV 48 [0 ffffffff 2 800] ------- [2:255 -1:255 28 0] [0x2 3 1 [5 0] [0 4]] (REQUEST)
r 1.012466444 _1_ RTR  --- 0 AODV 48 [0 ffffffff 2 800] ------- [2:255 -1:255 28 0] [0x2 3 1 [5 0] [0 4]] (REQUEST)
r 1.012466460 _4_ RTR  --- 0 AODV 48 [0 ffffffff 2 800] ------- [2:255 -1:255 28 0] [0x2 3 1 [5 0] [0 4]] (REQUEST)
s 1.013036194 _0_ MAC  --- 0 RTS 44 [52e 4 0 0] 
s 1.013126103 _1_ RTR  --- 0 AODV 48 [0 ffffffff 4 800] ------- [1:255 -1:255 28 0] [0x2 3 1 [5 0] [0 4]] (REQUEST)
r 1.013389028 _4_ MAC  --- 0 RTS 44 [52e 4 0 0] 
s 1.013399028 _4_ MAC  --- 0 CTS 38 [3f4 0 0 0] 
r 1.013703861 _0_ MAC  --- 0 CTS 38 [3f4 0 0 0] 
s 1.013713861 _0_ MAC  --- 0 ARP 86 [13a 4 0 806] ------- [REPLY 0/0 4/4]
r 1.014402694 _4_ MAC  --- 0 ARP 28 [13a 4 0 806] ------- [REPLY 0/0 4/4]
s 1.014412694 _4_ MAC  --- 0 ACK 38 [0 0 0 0] 
r 1.014717528 _0_ MAC  --- 0 ACK 38 [0 0 0 0] 
s 1.015056704 _1_ MAC  --- 0 AODV 106 [0 ffffffff 1 800] ------- [1:255 -1:255 28 0] [0x2 3 1 [5 0] [0 4]] (REQUEST)
r 1.015904721 _4_ MAC  --- 0 AODV 48 [0 ffffffff 1 800] ------- [1:255 -1:255 28 0] [0x2 3 1 [5 0] [0 4]] (REQUEST)
r 1.015904854 _3_ MAC  --- 0 AODV 48 [0 ffffffff 1 800] ------- [1:255 -1:255 28 0] [0x2 3 1 [5 0] [0 4]] (REQUEST)
r 1.015905021 _2_ MAC  --- 0 AODV 48 [0 ffffffff 1 800] ------- [1:255 -1:255 28 0] [0x2 3 1 [5 0] [0 4]] (REQUEST)
r 1.015929721 _4_ RTR  --- 0 AODV 48 [0 ffffffff 1 800] ------- [1:255 -1:255 28 0] [0x2 3 1 [5 0] [0 4]] (REQUEST)
r 1.015929854 _3_ RTR  --- 0 AODV 48 [0 ffffffff 1 800] ------- [1:255 -1:255 28 0] [0x2 3 1 [5 0] [0 4]] (REQUEST)
r 1.015930021 _2_ RTR  --- 0 AODV 48 [0 ffffffff 1 800] ------- [1:255 -1:255 28 0] [0x2 3 1 [5 0] [0 4]] (REQUEST)
s 1.016114721 _4_ MAC  --- 0 RTS 44 [5ae 0 4 0] 
r 1.016467554 _0_ MAC  --- 0 RTS 44 [5ae 0 4 0] 
s 1.016477554 _0_ MAC  --- 0 CTS 38 [474 4 0 0] 
r 1.016782388 _4_ MAC  --- 0 CTS 38 [474 4 0 0] 
s 1.016792388 _4_ MAC  --- 0 AODV 102 [13a 0 4 800] ------- [5:255 0:255 29 0] [0x4 2 [5 4] 10.000000] (REPLY)
r 1.017609221 _0_ MAC  --- 0 AODV 44 [13a 0 4 800] ------- [5:255 0:255 29 0] [0x4 2 [5 4] 10.000000] (REPLY)
s 1.017619221 _0_ MAC  --- 0 ACK 38 [0 4 0 0] 
r 1.017634221 _0_ RTR  --- 0 AODV 44 [13a 0 4 800] ------- [5:255 0:255 29 0] [0x4 2 [5 4] 10.000000] (REPLY)
s 1.017634221 _0_ RTR  --- 0 cbr 3020 [0 0 0 0] ------- [0:2 5:0 30 4] [0] 0 0
r 1.017924054 _4_ MAC  --- 0 ACK 38 [0 4 0 0] 
s 1.018373221 _0_ MAC  --- 0 RTS 44 [62ae 4 0 0] 
r 1.018726054 _4_ MAC  --- 0 RTS 44 [62ae 4 0 0] 
s 1.018736054 _4_ MAC  --- 0 CTS 38 [6174 0 0 0] 
r 1.019040888 _0_ MAC  --- 0 CTS 38 [6174 0 0 0] 
s 1.019050888 _0_ MAC  --- 0 cbr 3078 [13a 4 0 800] ------- [0:2 5:0 30 4] [0] 0 0
s 1.030000000 _0_ AGT  --- 1 cbr 3000 [0 0 0 0] ------- [0:2 5:0 32 0] [1] 0 0
r 1.030000000 _0_ RTR  --- 1 cbr 3000 [0 0 0 0] ------- [0:2 5:0 32 0] [1] 0 0
s 1.030000000 _0_ RTR  --- 1 cbr 3020 [0 0 0 0] ------- [0:2 5:0 30 4] [1] 0 0
r 1.043675721 _4_ MAC  --- 0 cbr 3020 [13a 4 0 800] ------- [0:2 5:0 30 4] [0] 1 0
s 1.043685721 _4_ MAC  --- 0 ACK 38 [0 0 0 0] 
r 1.043700721 _4_ RTR  --- 0 cbr 3020 [13a 4 0 800] ------- [0:2 5:0 30 4] [0] 1 0
f 1.043700721 _4_ RTR  --- 0 cbr 3020 [13a 4 0 800] ------- [0:2 5:0 29 5] [0] 1 0
r 1.043990554 _0_ MAC  --- 0 ACK 38 [0 0 0 0] 
s 1.044199721 _4_ MAC  --- 0 RTS 44 [62ae 5 4 0] 
r 1.044552554 _5_ MAC  --- 0 RTS 44 [62ae 5 4 0] 
s 1.044562554 _5_ MAC  --- 0 CTS 38 [6174 4 0 0] 
r 1.044867388 _4_ MAC  --- 0 CTS 38 [6174 4 0 0] 
s 1.044877388 _4_ MAC  --- 0 cbr 3078 [13a 5 4 800] ------- [0:2 5:0 29 5] [0] 1 0
s 1.060000000 _0_ AGT  --- 2 cbr 3000 [0 0 0 0] ------- [0:2 5:0 32 0] [2] 0 0
r 1.060000000 _0_ RTR  --- 2 cbr 3000 [0 0 0 0] ------- [0:2 5:0 32 0] [2] 0 0
s 1.060000000 _0_ RTR  --- 2 cbr 3020 [0 0 0 0] ------- [0:2 5:0 30 4] [2] 0 0
r 1.069502221 _5_ MAC  --- 0 cbr 3020 [13a 5 4 800] ------- [0:2 5:0 29 5] [0] 2 0
s 1.069512221 _5_ MAC  --- 0 ACK 38 [0 4 0 0] 
r 1.069527221 _5_ AGT  --- 0 cbr 3020 [13a 5 4 800] ------- [0:2 5:0 29 5] [0] 2 0
r 1.069817054 _4_ MAC  --- 0 ACK 38 [0 4 0 0] 
s 1.070451554 _0_ MAC  --- 0 RTS 44 [62ae 4 0 0] 
r 1.070804388 _4_ MAC  --- 0 RTS 44 [62ae 4 0 0] 
s 1.070814388 _4_ MAC  --- 0 CTS 38 [6174 0 0 0] 
r 1.071119221 _0_ MAC  --- 0 CTS 38 [6174 0 0 0] 
s 1.071129221 _0_ MAC  --- 1 cbr 3078 [13a 4 0 800] ------- [0:2 5:0 30 4] [1] 0 0
s 1.090000000 _0_ AGT  --- 3 cbr 3000 [0 0 0 0] ------- [0:2 5:0 32 0] [3] 0 0
r 1.090000000 _0_ RTR  --- 3 cbr 3000 [0 0 0 0] ------- [0:2 5:0 32 0] [3] 0 0
s 1.090000000 _0_ RTR  --- 3 cbr 3020 [0 0 0 0] ------- [0:2 5:0 30 4] [3] 0 0
r 1.095754054 _4_ MAC  --- 1 cbr 3020 [13a 4 0 800] ------- [0:2 5:0 30 4] [1] 1 0
s 1.095764054 _4_ MAC  --- 0 ACK 38 [0 0 0 0] 
r 1.095779054 _4_ RTR  --- 1 cbr 3020 [13a 4 0 800] ------- [0:2 5:0 30 4] [1] 1 0
f 1.095779054 _4_ RTR  --- 1 cbr 3020 [13a 4 0 800] ------- [0:2 5:0 29 5] [1] 1 0
r 1.096068888 _0_ MAC  --- 0 ACK 38 [0 0 0 0] 
s 1.096418054 _4_ MAC  --- 0 RTS 44 [62ae 5 4 0] 
r 1.096770888 _5_ MAC  --- 0 RTS 44 [62ae 5 4 0] 
s 1.096780888 _5_ MAC  --- 0 CTS 38 [6174 4 0 0] 
r 1.097085721 _4_ MAC  --- 0 CTS 38 [6174 4 0 0] 
s 1.097095721 _4_ MAC  --- 1 cbr 3078 [13a 5 4 800] ------- [0:2 5:0 29 5] [1] 1 0
s 1.120000000 _0_ AGT  --- 4 cbr 3000 [0 0 0 0] ------- [0:2 5:0 32 0] [4] 0 0
r 1.120000000 _0_ RTR  --- 4 cbr 3000 [0 0 0 0] ------- [0:2 5:0 32 0] [4] 0 0
s 1.120000000 _0_ RTR  --- 4 cbr 3020 [0 0 0 0] ------- [0:2 5:0 30 4] [4] 0 0
r 1.121720554 _5_ MAC  --- 1 cbr 3020 [13a 5 4 800] ------- [0:2 5:0 29 5] [1] 2 0
s 1.121730554 _5_ MAC  --- 0 ACK 38 [0 4 0 0] 
r 1.121745554 _5_ AGT  --- 1 cbr 3020 [13a 5 4 800] ------- [0:2 5:0 29 5] [1] 2 0
r 1.122035388 _4_ MAC  --- 0 ACK 38 [0 4 0 0] 
s 1.122529888 _0_ MAC  --- 0 RTS 44 [62ae 4 0 0] 
r 1.122882721 _4_ MAC  --- 0 RTS 44 [62ae 4 0 0] 
s 1.122892721 _4_ MAC  --- 0 CTS 38 [6174 0 0 0] 
r 1.123197554 _0_ MAC  --- 0 CTS 38 [6174 0 0 0] 
s 1.123207554 _0_ MAC  --- 2 cbr 3078 [13a 4 0 800] ------- [0:2 5:0 30 4] [2] 0 0
r 1.147832388 _4_ MAC  --- 2 cbr 3020 [13a 4 0 800] ------- [0:2 5:0 30 4] [2] 1 0
s 1.147842388 _4_ MAC  --- 0 ACK 38 [0 0 0 0] 
r 1.147857388 _4_ RTR  --- 2 cbr 3020 [13a 4 0 800] ------- [0:2 5:0 30 4] [2] 1 0
f 1.147857388 _4_ RTR  --- 2 cbr 3020 [13a 4 0 800] ------- [0:2 5:0 29 5] [2] 1 0
r 1.148147221 _0_ MAC  --- 0 ACK 38 [0 0 0 0] 
s 1.148276388 _4_ MAC  --- 0 RTS 44 [62ae 5 4 0] 
r 1.148629221 _5_ MAC  --- 0 RTS 44 [62ae 5 4 0] 
s 1.148639221 _5_ MAC  --- 0 CTS 38 [6174 4 0 0] 
r 1.148944054 _4_ MAC  --- 0 CTS 38 [6174 4 0 0] 
s 1.148954054 _4_ MAC  --- 2 cbr 3078 [13a 5 4 800] ------- [0:2 5:0 29 5] [2] 1 0
s 1.150000000 _0_ AGT  --- 5 cbr 3000 [0 0 0 0] ------- [0:2 5:0 32 0] [5] 0 0
r 1.150000000 _0_ RTR  --- 5 cbr 3000 [0 0 0 0] ------- [0:2 5:0 32 0] [5] 0 0
s 1.150000000 _0_ RTR  --- 5 cbr 3020 [0 0 0 0] ------- [0:2 5:0 30 4] [5] 0 0
r 1.173578888 _5_ MAC  --- 2 cbr 3020 [13a 5 4 800] ------- [0:2 5:0 29 5] [2] 2 0
s 1.173588888 _5_ MAC  --- 0 ACK 38 [0 4 0 0] 
r 1.173603888 _5_ AGT  --- 2 cbr 3020 [13a 5 4 800] ------- [0:2 5:0 29 5] [2] 2 0
r 1.173893721 _4_ MAC  --- 0 ACK 38 [0 4 0 0] 
s 1.174528221 _0_ MAC  --- 0 RTS 44 [62ae 4 0 0] 
r 1.174881054 _4_ MAC  --- 0 RTS 44 [62ae 4 0 0] 
s 1.174891054 _4_ MAC  --- 0 CTS 38 [6174 0 0 0] 
r 1.175195888 _0_ MAC  --- 0 CTS 38 [6174 0 0 0] 
s 1.175205888 _0_ MAC  --- 3 cbr 3078 [13a 4 0 800] ------- [0:2 5:0 30 4] [3] 0 0
s 1.180000000 _0_ AGT  --- 6 cbr 3000 [0 0 0 0] ------- [0:2 5:0 32 0] [6] 0 0
r 1.180000000 _0_ RTR  --- 6 cbr 3000 [0 0 0 0] ------- [0:2 5:0 32 0] [6] 0 0
s 1.180000000 _0_ RTR  --- 6 cbr 3020 [0 0 0 0] ------- [0:2 5:0 30 4] [6] 0 0
r 1.199830721 _4_ MAC  --- 3 cbr 3020 [13a 4 0 800] ------- [0:2 5:0 30 4] [3] 1 0
s 1.199840721 _4_ MAC  --- 0 ACK 38 [0 0 0 0] 
r 1.199855721 _4_ RTR  --- 3 cbr 3020 [13a 4 0 800] ------- [0:2 5:0 30 4] [3] 1 0
f 1.199855721 _4_ RTR  --- 3 cbr 3020 [13a 4 0 800] ------- [0:2 5:0 29 5] [3] 1 0
r 1.200145554 _0_ MAC  --- 0 ACK 38 [0 0 0 0] 
s 1.200294721 _4_ MAC  --- 0 RTS 44 [62ae 5 4 0] 
r 1.200647554 _5_ MAC  --- 0 RTS 44 [62ae 5 4 0] 
s 1.200657554 _5_ MAC  --- 0 CTS 38 [6174 4 0 0] 
r 1.200962388 _4_ MAC  --- 0 CTS 38 [6174 4 0 0] 
s 1.200972388 _4_ MAC  --- 3 cbr 3078 [13a 5 4 800] ------- [0:2 5:0 29 5] [3] 1 0
s 1.210000000 _0_ AGT  --- 7 cbr 3000 [0 0 0 0] ------- [0:2 5:0 32 0] [7] 0 0
r 1.210000000 _0_ RTR  --- 7 cbr 3000 [0 0 0 0] ------- [0:2 5:0 32 0] [7] 0 0
s 1.210000000 _0_ RTR  --- 7 cbr 3020 [0 0 0 0] ------- [0:2 5:0 30 4] [7] 0 0
r 1.225597221 _5_ MAC  --- 3 cbr 3020 [13a 5 4 800] ------- [0:2 5:0 29 5] [3] 2 0
s 1.225607221 _5_ MAC  --- 0 ACK 38 [0 4 0 0] 
r 1.225622221 _5_ AGT  --- 3 cbr 3020 [13a 5 4 800] ------- [0:2 5:0 29 5] [3] 2 0
r 1.225912054 _4_ MAC  --- 0 ACK 38 [0 4 0 0] 
s 1.226766554 _0_ MAC  --- 0 RTS 44 [62ae 4 0 0] 
r 1.227119388 _4_ MAC  --- 0 RTS 44 [62ae 4 0 0] 
s 1.227129388 _4_ MAC  --- 0 CTS 38 [6174 0 0 0] 
r 1.227434221 _0_ MAC  --- 0 CTS 38 [6174 0 0 0] 
s 1.227444221 _0_ MAC  --- 4 cbr 3078 [13a 4 0 800] ------- [0:2 5:0 30 4] [4] 0 0
s 1.240000000 _0_ AGT  --- 8 cbr 3000 [0 0 0 0] ------- [0:2 5:0 32 0] [8] 0 0
r 1.240000000 _0_ RTR  --- 8 cbr 3000 [0 0 0 0] ------- [0:2 5:0 32 0] [8] 0 0
s 1.240000000 _0_ RTR  --- 8 cbr 3020 [0 0 0 0] ------- [0:2 5:0 30 4] [8] 0 0
r 1.252069054 _4_ MAC  --- 4 cbr 3020 [13a 4 0 800] ------- [0:2 5:0 30 4] [4] 1 0
s 1.252079054 _4_ MAC  --- 0 ACK 38 [0 0 0 0] 
r 1.252094054 _4_ RTR  --- 4 cbr 3020 [13a 4 0 800] ------- [0:2 5:0 30 4] [4] 1 0
f 1.252094054 _4_ RTR  --- 4 cbr 3020 [13a 4 0 800] ------- [0:2 5:0 29 5] [4] 1 0
r 1.252383888 _0_ MAC  --- 0 ACK 38 [0 0 0 0] 
s 1.252633054 _4_ MAC  --- 0 RTS 44 [62ae 5 4 0] 
r 1.252985888 _5_ MAC  --- 0 RTS 44 [62ae 5 4 0] 
s 1.252995888 _5_ MAC  --- 0 CTS 38 [6174 4 0 0] 
r 1.253300721 _4_ MAC  --- 0 CTS 38 [6174 4 0 0] 
s 1.253310721 _4_ MAC  --- 4 cbr 3078 [13a 5 4 800] ------- [0:2 5:0 29 5] [4] 1 0
s 1.270000000 _0_ AGT  --- 9 cbr 3000 [0 0 0 0] ------- [0:2 5:0 32 0] [9] 0 0
r 1.270000000 _0_ RTR  --- 9 cbr 3000 [0 0 0 0] ------- [0:2 5:0 32 0] [9] 0 0
s 1.270000000 _0_ RTR  --- 9 cbr 3020 [0 0 0 0] ------- [0:2 5:0 30 4] [9] 0 0
r 1.277935554 _5_ MAC  --- 4 cbr 3020 [13a 5 4 800] ------- [0:2 5:0 29 5] [4] 2 0
s 1.277945554 _5_ MAC  --- 0 ACK 38 [0 4 0 0] 
r 1.277960554 _5_ AGT  --- 4 cbr 3020 [13a 5 4 800] ------- [0:2 5:0 29 5] [4] 2 0
r 1.278250388 _4_ MAC  --- 0 ACK 38 [0 4 0 0] 
s 1.279064888 _0_ MAC  --- 0 RTS 44 [62ae 4 0 0] 
r 1.279417721 _4_ MAC  --- 0 RTS 44 [62ae 4 0 0] 
s 1.279427721 _4_ MAC  --- 0 CTS 38 [6174 0 0 0] 
r 1.279732554 _0_ MAC  --- 0 CTS 38 [6174 0 0 0] 
s 1.279742554 _0_ MAC  --- 5 cbr 3078 [13a 4 0 800] ------- [0:2 5:0 30 4] [5] 0 0
s 1.300000000 _0_ AGT  --- 10 cbr 3000 [0 0 0 0] ------- [0:2 5:0 32 0] [10] 0 0
r 1.300000000 _0_ RTR  --- 10 cbr 3000 [0 0 0 0] ------- [0:2 5:0 32 0] [10] 0 0
s 1.300000000 _0_ RTR  --- 10 cbr 3020 [0 0 0 0] ------- [0:2 5:0 30 4] [10] 0 0
r 1.304367388 _4_ MAC  --- 5 cbr 3020 [13a 4 0 800] ------- [0:2 5:0 30 4] [5] 1 0
s 1.304377388 _4_ MAC  --- 0 ACK 38 [0 0 0 0] 
r 1.304392388 _4_ RTR  --- 5 cbr 3020 [13a 4 0 800] ------- [0:2 5:0 30 4] [5] 1 0
f 1.304392388 _4_ RTR  --- 5 cbr 3020 [13a 4 0 800] ------- [0:2 5:0 29 5] [5] 1 0
r 1.304682221 _0_ MAC  --- 0 ACK 38 [0 0 0 0] 
s 1.304851388 _4_ MAC  --- 0 RTS 44 [62ae 5 4 0] 
r 1.305204221 _5_ MAC  --- 0 RTS 44 [62ae 5 4 0] 
s 1.305214221 _5_ MAC  --- 0 CTS 38 [6174 4 0 0] 
r 1.305519054 _4_ MAC  --- 0 CTS 38 [6174 4 0 0] 
s 1.305529054 _4_ MAC  --- 5 cbr 3078 [13a 5 4 800] ------- [0:2 5:0 29 5] [5] 1 0
s 1.330000000 _0_ AGT  --- 11 cbr 3000 [0 0 0 0] ------- [0:2 5:0 32 0] [11] 0 0
r 1.330000000 _0_ RTR  --- 11 cbr 3000 [0 0 0 0] ------- [0:2 5:0 32 0] [11] 0 0
s 1.330000000 _0_ RTR  --- 11 cbr 3020 [0 0 0 0] ------- [0:2 5:0 30 4] [11] 0 0
r 1.330153888 _5_ MAC  --- 5 cbr 3020 [13a 5 4 800] ------- [0:2 5:0 29 5] [5] 2 0
s 1.330163888 _5_ MAC  --- 0 ACK 38 [0 4 0 0] 
r 1.330178888 _5_ AGT  --- 5 cbr 3020 [13a 5 4 800] ------- [0:2 5:0 29 5] [5] 2 0
r 1.330468721 _4_ MAC  --- 0 ACK 38 [0 4 0 0] 
s 1.331123221 _0_ MAC  --- 0 RTS 44 [62ae 4 0 0] 
r 1.331476054 _4_ MAC  --- 0 RTS 44 [62ae 4 0 0] 
s 1.331486054 _4_ MAC  --- 0 CTS 38 [6174 0 0 0] 
r 1.331790888 _0_ MAC  --- 0 CTS 38 [6174 0 0 0] 
s 1.331800888 _0_ MAC  --- 6 cbr 3078 [13a 4 0 800] ------- [0:2 5:0 30 4] [6] 0 0
r 1.356425721 _4_ MAC  --- 6 cbr 3020 [13a 4 0 800] ------- [0:2 5:0 30 4] [6] 1 0
s 1.356435721 _4_ MAC  --- 0 ACK 38 [0 0 0 0] 
r 1.356450721 _4_ RTR  --- 6 cbr 3020 [13a 4 0 800] ------- [0:2 5:0 30 4] [6] 1 0
f 1.356450721 _4_ RTR  --- 6 cbr 3020 [13a 4 0 800] ------- [0:2 5:0 29 5] [6] 1 0
r 1.356740554 _0_ MAC  --- 0 ACK 38 [0 0 0 0] 
s 1.356970554 _0_ MAC  --- 0 RTS 44 [62ae 4 0 0] 
r 1.357323388 _4_ MAC  --- 0 RTS 44 [62ae 4 0 0] 
s 1.357333388 _4_ MAC  --- 0 CTS 38 [6174 0 0 0] 
r 1.357638221 _0_ MAC  --- 0 CTS 38 [6174 0 0 0] 
s 1.357648221 _0_ MAC  --- 7 cbr 3078 [13a 4 0 800] ------- [0:2 5:0 30 4] [7] 0 0
s 1.360000000 _0_ AGT  --- 12 cbr 3000 [0 0 0 0] ------- [0:2 5:0 32 0] [12] 0 0
r 1.360000000 _0_ RTR  --- 12 cbr 3000 [0 0 0 0] ------- [0:2 5:0 32 0] [12] 0 0
s 1.360000000 _0_ RTR  --- 12 cbr 3020 [0 0 0 0] ------- [0:2 5:0 30 4] [12] 0 0
r 1.382273054 _4_ MAC  --- 7 cbr 3020 [13a 4 0 800] ------- [0:2 5:0 30 4] [7] 1 0
s 1.382283054 _4_ MAC  --- 0 ACK 38 [0 0 0 0] 
r 1.382298054 _4_ RTR  --- 7 cbr 3020 [13a 4 0 800] ------- [0:2 5:0 30 4] [7] 1 0
f 1.382298054 _4_ RTR  --- 7 cbr 3020 [13a 4 0 800] ------- [0:2 5:0 29 5] [7] 1 0
r 1.382587888 _0_ MAC  --- 0 ACK 38 [0 0 0 0] 
s 1.382737054 _4_ MAC  --- 0 RTS 44 [62ae 5 4 0] 
r 1.383089888 _5_ MAC  --- 0 RTS 44 [62ae 5 4 0] 
s 1.383099888 _5_ MAC  --- 0 CTS 38 [6174 4 0 0] 
r 1.383404721 _4_ MAC  --- 0 CTS 38 [6174 4 0 0] 
s 1.383414721 _4_ MAC  --- 6 cbr 3078 [13a 5 4 800] ------- [0:2 5:0 29 5] [6] 1 0
s 1.390000000 _0_ AGT  --- 13 cbr 3000 [0 0 0 0] ------- [0:2 5:0 32 0] [13] 0 0
r 1.390000000 _0_ RTR  --- 13 cbr 3000 [0 0 0 0] ------- [0:2 5:0 32 0] [13] 0 0
s 1.390000000 _0_ RTR  --- 13 cbr 3020 [0 0 0 0] ------- [0:2 5:0 30 4] [13] 0 0
r 1.408039554 _5_ MAC  --- 6 cbr 3020 [13a 5 4 800] ------- [0:2 5:0 29 5] [6] 2 0
s 1.408049554 _5_ MAC  --- 0 ACK 38 [0 4 0 0] 
r 1.408064554 _5_ AGT  --- 6 cbr 3020 [13a 5 4 800] ------- [0:2 5:0 29 5] [6] 2 0
r 1.408354388 _4_ MAC  --- 0 ACK 38 [0 4 0 0] 
s 1.408884388 _4_ MAC  --- 0 RTS 44 [62ae 5 4 0] 
r 1.409237221 _5_ MAC  --- 0 RTS 44 [62ae 5 4 0] 
s 1.409247221 _5_ MAC  --- 0 CTS 38 [6174 4 0 0] 
r 1.409552054 _4_ MAC  --- 0 CTS 38 [6174 4 0 0] 
s 1.409562054 _4_ MAC  --- 7 cbr 3078 [13a 5 4 800] ------- [0:2 5:0 29 5] [7] 1 0
s 1.420000000 _0_ AGT  --- 14 cbr 3000 [0 0 0 0] ------- [0:2 5:0 32 0] [14] 0 0
r 1.420000000 _0_ RTR  --- 14 cbr 3000 [0 0 0 0] ------- [0:2 5:0 32 0] [14] 0 0
s 1.420000000 _0_ RTR  --- 14 cbr 3020 [0 0 0 0] ------- [0:2 5:0 30 4] [14] 0 0
r 1.434186888 _5_ MAC  --- 7 cbr 3020 [13a 5 4 800] ------- [0:2 5:0 29 5] [7] 2 0
s 1.434196888 _5_ MAC  --- 0 ACK 38 [0 4 0 0] 
r 1.434211888 _5_ AGT  --- 7 cbr 3020 [13a 5 4 800] ------- [0:2 5:0 29 5] [7] 2 0
r 1.434501721 _4_ MAC  --- 0 ACK 38 [0 4 0 0] 
s 1.435016221 _0_ MAC  --- 0 RTS 44 [62ae 4 0 0] 
r 1.435369054 _4_ MAC  --- 0 RTS 44 [62ae 4 0 0] 
s 1.435379054 _4_ MAC  --- 0 CTS 38 [6174 0 0 0] 
r 1.435683888 _0_ MAC  --- 0 CTS 38 [6174 0 0 0] 
s 1.435693888 _0_ MAC  --- 8 cbr 3078 [13a 4 0 800] ------- [0:2 5:0 30 4] [8] 0 0
s 1.450000000 _0_ AGT  --- 15 cbr 3000 [0 0 0 0] ------- [0:2 5:0 32 0] [15] 0 0
r 1.450000000 _0_ RTR  --- 15 cbr 3000 [0 0 0 0] ------- [0:2 5:0 32 0] [15] 0 0
s 1.450000000 _0_ RTR  --- 15 cbr 3020 [0 0 0 0] ------- [0:2 5:0 30 4] [15] 0 0
r 1.460318721 _4_ MAC  --- 8 cbr 3020 [13a 4 0 800] ------- [0:2 5:0 30 4] [8] 1 0
s 1.460328721 _4_ MAC  --- 0 ACK 38 [0 0 0 0] 
r 1.460343721 _4_ RTR  --- 8 cbr 3020 [13a 4 0 800] ------- [0:2 5:0 30 4] [8] 1 0
f 1.460343721 _4_ RTR  --- 8 cbr 3020 [13a 4 0 800] ------- [0:2 5:0 29 5] [8] 1 0
r 1.460633554 _0_ MAC  --- 0 ACK 38 [0 0 0 0] 
s 1.460902721 _4_ MAC  --- 0 RTS 44 [62ae 5 4 0] 
r 1.461255554 _5_ MAC  --- 0 RTS 44 [62ae 5 4 0] 
s 1.461265554 _5_ MAC  --- 0 CTS 38 [6174 4 0 0] 
r 1.461570388 _4_ MAC  --- 0 CTS 38 [6174 4 0 0] 
s 1.461580388 _4_ MAC  --- 8 cbr 3078 [13a 5 4 800] ------- [0:2 5:0 29 5] [8] 1 0
s 1.480000000 _0_ AGT  --- 16 cbr 3000 [0 0 0 0] ------- [0:2 5:0 32 0] [16] 0 0
r 1.480000000 _0_ RTR  --- 16 cbr 3000 [0 0 0 0] ------- [0:2 5:0 32 0] [16] 0 0
s 1.480000000 _0_ RTR  --- 16 cbr 3020 [0 0 0 0] ------- [0:2 5:0 30 4] [16] 0 0
r 1.486205221 _5_ MAC  --- 8 cbr 3020 [13a 5 4 800] ------- [0:2 5:0 29 5] [8] 2 0
s 1.486215221 _5_ MAC  --- 0 ACK 38 [0 4 0 0] 
r 1.486230221 _5_ AGT  --- 8 cbr 3020 [13a 5 4 800] ------- [0:2 5:0 29 5] [8] 2 0
r 1.486520054 _4_ MAC  --- 0 ACK 38 [0 4 0 0] 
s 1.487054554 _0_ MAC  --- 0 RTS 44 [62ae 4 0 0] 
r 1.487407388 _4_ MAC  --- 0 RTS 44 [62ae 4 0 0] 
s 1.487417388 _4_ MAC  --- 0 CTS 38 [6174 0 0 0] 
r 1.487722221 _0_ MAC  --- 0 CTS 38 [6174 0 0 0] 
s 1.487732221 _0_ MAC  --- 9 cbr 3078 [13a 4 0 800] ------- [0:2 5:0 30 4] [9] 0 0
s 1.510000000 _0_ AGT  --- 17 cbr 3000 [0 0 0 0] ------- [0:2 5:0 32 0] [17] 0 0
r 1.510000000 _0_ RTR  --- 17 cbr 3000 [0 0 0 0] ------- [0:2 5:0 32 0] [17] 0 0
s 1.510000000 _0_ RTR  --- 17 cbr 3020 [0 0 0 0] ------- [0:2 5:0 30 4] [17] 0 0
r 1.512357054 _4_ MAC  --- 9 cbr 3020 [13a 4 0 800] ------- [0:2 5:0 30 4] [9] 1 0
s 1.512367054 _4_ MAC  --- 0 ACK 38 [0 0 0 0] 
r 1.512382054 _4_ RTR  --- 9 cbr 3020 [13a 4 0 800] ------- [0:2 5:0 30 4] [9] 1 0
f 1.512382054 _4_ RTR  --- 9 cbr 3020 [13a 4 0 800] ------- [0:2 5:0 29 5] [9] 1 0
r 1.512671888 _0_ MAC  --- 0 ACK 38 [0 0 0 0] 
s 1.512801888 _0_ MAC  --- 0 RTS 44 [62ae 4 0 0] 
r 1.513154721 _4_ MAC  --- 0 RTS 44 [62ae 4 0 0] 
s 1.513164721 _4_ MAC  --- 0 CTS 38 [6174 0 0 0] 
r 1.513469554 _0_ MAC  --- 0 CTS 38 [6174 0 0 0] 
s 1.513479554 _0_ MAC  --- 10 cbr 3078 [13a 4 0 800] ------- [0:2 5:0 30 4] [10] 0 0
r 1.538104388 _4_ MAC  --- 10 cbr 3020 [13a 4 0 800] ------- [0:2 5:0 30 4] [10] 1 0
s 1.538114388 _4_ MAC  --- 0 ACK 38 [0 0 0 0] 
r 1.538129388 _4_ RTR  --- 10 cbr 3020 [13a 4 0 800] ------- [0:2 5:0 30 4] [10] 1 0
f 1.538129388 _4_ RTR  --- 10 cbr 3020 [13a 4 0 800] ------- [0:2 5:0 29 5] [10] 1 0
r 1.538419221 _0_ MAC  --- 0 ACK 38 [0 0 0 0] 
s 1.538608388 _4_ MAC  --- 0 RTS 44 [62ae 5 4 0] 
r 1.538961221 _5_ MAC  --- 0 RTS 44 [62ae 5 4 0] 
s 1.538971221 _5_ MAC  --- 0 CTS 38 [6174 4 0 0] 
r 1.539276054 _4_ MAC  --- 0 CTS 38 [6174 4 0 0] 
s 1.539286054 _4_ MAC  --- 9 cbr 3078 [13a 5 4 800] ------- [0:2 5:0 29 5] [9] 1 0
s 1.540000000 _0_ AGT  --- 18 cbr 3000 [0 0 0 0] ------- [0:2 5:0 32 0] [18] 0 0
r 1.540000000 _0_ RTR  --- 18 cbr 3000 [0 0 0 0] ------- [0:2 5:0 32 0] [18] 0 0
s 1.540000000 _0_ RTR  --- 18 cbr 3020 [0 0 0 0] ------- [0:2 5:0 30 4] [18] 0 0
r 1.563910888 _5_ MAC  --- 9 cbr 3020 [13a 5 4 800] ------- [0:2 5:0 29 5] [9] 2 0
s 1.563920888 _5_ MAC  --- 0 ACK 38 [0 4 0 0] 
r 1.563935888 _5_ AGT  --- 9 cbr 3020 [13a 5 4 800] ------- [0:2 5:0 29 5] [9] 2 0
r 1.564225721 _4_ MAC  --- 0 ACK 38 [0 4 0 0] 
s 1.564275721 _4_ MAC  --- 0 RTS 44 [62ae 5 4 0] 
r 1.564628554 _5_ MAC  --- 0 RTS 44 [62ae 5 4 0] 
s 1.564638554 _5_ MAC  --- 0 CTS 38 [6174 4 0 0] 
r 1.564943388 _4_ MAC  --- 0 CTS 38 [6174 4 0 0] 
s 1.564953388 _4_ MAC  --- 10 cbr 3078 [13a 5 4 800] ------- [0:2 5:0 29 5] [10] 1 0
s 1.570000000 _0_ AGT  --- 19 cbr 3000 [0 0 0 0] ------- [0:2 5:0 32 0] [19] 0 0
r 1.570000000 _0_ RTR  --- 19 cbr 3000 [0 0 0 0] ------- [0:2 5:0 32 0] [19] 0 0
s 1.570000000 _0_ RTR  --- 19 cbr 3020 [0 0 0 0] ------- [0:2 5:0 30 4] [19] 0 0
r 1.589578221 _5_ MAC  --- 10 cbr 3020 [13a 5 4 800] ------- [0:2 5:0 29 5] [10] 2 0
s 1.589588221 _5_ MAC  --- 0 ACK 38 [0 4 0 0] 
r 1.589603221 _5_ AGT  --- 10 cbr 3020 [13a 5 4 800] ------- [0:2 5:0 29 5] [10] 2 0
r 1.589893054 _4_ MAC  --- 0 ACK 38 [0 4 0 0] 
s 1.590487554 _0_ MAC  --- 0 RTS 44 [62ae 4 0 0] 
r 1.590840388 _4_ MAC  --- 0 RTS 44 [62ae 4 0 0] 
s 1.590850388 _4_ MAC  --- 0 CTS 38 [6174 0 0 0] 
r 1.591155221 _0_ MAC  --- 0 CTS 38 [6174 0 0 0] 
s 1.591165221 _0_ MAC  --- 11 cbr 3078 [13a 4 0 800] ------- [0:2 5:0 30 4] [11] 0 0
s 1.600000000 _0_ AGT  --- 20 cbr 3000 [0 0 0 0] ------- [0:2 5:0 32 0] [20] 0 0
r 1.600000000 _0_ RTR  --- 20 cbr 3000 [0 0 0 0] ------- [0:2 5:0 32 0] [20] 0 0
s 1.600000000 _0_ RTR  --- 20 cbr 3020 [0 0 0 0] ------- [0:2 5:0 30 4] [20] 0 0
r 1.615790054 _4_ MAC  --- 11 cbr 3020 [13a 4 0 800] ------- [0:2 5:0 30 4] [11] 1 0
s 1.615800054 _4_ MAC  --- 0 ACK 38 [0 0 0 0] 
r 1.615815054 _4_ RTR  --- 11 cbr 3020 [13a 4 0 800] ------- [0:2 5:0 30 4] [11] 1 0
f 1.615815054 _4_ RTR  --- 11 cbr 3020 [13a 4 0 800] ------- [0:2 5:0 29 5] [11] 1 0
r 1.616104888 _0_ MAC  --- 0 ACK 38 [0 0 0 0] 
s 1.616434888 _0_ MAC  --- 0 RTS 44 [62ae 4 0 0] 
r 1.616787721 _4_ MAC  --- 0 RTS 44 [62ae 4 0 0] 
s 1.616797721 _4_ MAC  --- 0 CTS 38 [6174 0 0 0] 
r 1.617102554 _0_ MAC  --- 0 CTS 38 [6174 0 0 0] 
s 1.617112554 _0_ MAC  --- 12 cbr 3078 [13a 4 0 800] ------- [0:2 5:0 30 4] [12] 0 0
s 1.630000000 _0_ AGT  --- 21 cbr 3000 [0 0 0 0] ------- [0:2 5:0 32 0] [21] 0 0
r 1.630000000 _0_ RTR  --- 21 cbr 3000 [0 0 0 0] ------- [0:2 5:0 32 0] [21] 0 0
s 1.630000000 _0_ RTR  --- 21 cbr 3020 [0 0 0 0] ------- [0:2 5:0 30 4] [21] 0 0
r 1.641737388 _4_ MAC  --- 12 cbr 3020 [13a 4 0 800] ------- [0:2 5:0 30 4] [12] 1 0
s 1.641747388 _4_ MAC  --- 0 ACK 38 [0 0 0 0] 
r 1.641762388 _4_ RTR  --- 12 cbr 3020 [13a 4 0 800] ------- [0:2 5:0 30 4] [12] 1 0
f 1.641762388 _4_ RTR  --- 12 cbr 3020 [13a 4 0 800] ------- [0:2 5:0 29 5] [12] 1 0
r 1.642052221 _0_ MAC  --- 0 ACK 38 [0 0 0 0] 
s 1.642121388 _4_ MAC  --- 0 RTS 44 [62ae 5 4 0] 
s 1.642122221 _0_ MAC  --- 0 RTS 44 [62ae 4 0 0] 
D 1.642123554 _5_ MAC  COL 0 RTS 44 [62ae 5 4 0] 
s 1.643689054 _4_ MAC  --- 0 RTS 44 [62ae 5 4 0] 
r 1.644041888 _5_ MAC  --- 0 RTS 44 [62ae 5 4 0] 
s 1.644051888 _5_ MAC  --- 0 CTS 38 [6174 4 0 0] 
r 1.644356721 _4_ MAC  --- 0 CTS 38 [6174 4 0 0] 
s 1.644366721 _4_ MAC  --- 11 cbr 3078 [13a 5 4 800] ------- [0:2 5:0 29 5] [11] 1 0
s 1.660000000 _0_ AGT  --- 22 cbr 3000 [0 0 0 0] ------- [0:2 5:0 32 0] [22] 0 0
r 1.660000000 _0_ RTR  --- 22 cbr 3000 [0 0 0 0] ------- [0:2 5:0 32 0] [22] 0 0
s 1.660000000 _0_ RTR  --- 22 cbr 3020 [0 0 0 0] ------- [0:2 5:0 30 4] [22] 0 0
r 1.668991554 _5_ MAC  --- 11 cbr 3020 [13a 5 4 800] ------- [0:2 5:0 29 5] [11] 2 0
s 1.669001554 _5_ MAC  --- 0 ACK 38 [0 4 0 0] 
r 1.669016554 _5_ AGT  --- 11 cbr 3020 [13a 5 4 800] ------- [0:2 5:0 29 5] [11] 2 0
r 1.669306388 _4_ MAC  --- 0 ACK 38 [0 4 0 0] 
s 1.669476388 _4_ MAC  --- 0 RTS 44 [62ae 5 4 0] 
r 1.669829221 _5_ MAC  --- 0 RTS 44 [62ae 5 4 0] 
s 1.669839221 _5_ MAC  --- 0 CTS 38 [6174 4 0 0] 
r 1.670144054 _4_ MAC  --- 0 CTS 38 [6174 4 0 0] 
s 1.670154054 _4_ MAC  --- 12 cbr 3078 [13a 5 4 800] ------- [0:2 5:0 29 5] [12] 1 0
s 1.690000000 _0_ AGT  --- 23 cbr 3000 [0 0 0 0] ------- [0:2 5:0 32 0] [23] 0 0
r 1.690000000 _0_ RTR  --- 23 cbr 3000 [0 0 0 0] ------- [0:2 5:0 32 0] [23] 0 0
s 1.690000000 _0_ RTR  --- 23 cbr 3020 [0 0 0 0] ------- [0:2 5:0 30 4] [23] 0 0
r 1.694778888 _5_ MAC  --- 12 cbr 3020 [13a 5 4 800] ------- [0:2 5:0 29 5] [12] 2 0
s 1.694788888 _5_ MAC  --- 0 ACK 38 [0 4 0 0] 
r 1.694803888 _5_ AGT  --- 12 cbr 3020 [13a 5 4 800] ------- [0:2 5:0 29 5] [12] 2 0
r 1.695093721 _4_ MAC  --- 0 ACK 38 [0 4 0 0] 
s 1.695628221 _0_ MAC  --- 0 RTS 44 [62ae 4 0 0] 
r 1.695981054 _4_ MAC  --- 0 RTS 44 [62ae 4 0 0] 
s 1.695991054 _4_ MAC  --- 0 CTS 38 [6174 0 0 0] 
r 1.696295888 _0_ MAC  --- 0 CTS 38 [6174 0 0 0] 
s 1.696305888 _0_ MAC  --- 13 cbr 3078 [13a 4 0 800] ------- [0:2 5:0 30 4] [13] 0 0
s 1.720000000 _0_ AGT  --- 24 cbr 3000 [0 0 0 0] ------- [0:2 5:0 32 0] [24] 0 0
r 1.720000000 _0_ RTR  --- 24 cbr 3000 [0 0 0 0] ------- [0:2 5:0 32 0] [24] 0 0
s 1.720000000 _0_ RTR  --- 24 cbr 3020 [0 0 0 0] ------- [0:2 5:0 30 4] [24] 0 0
r 1.720930721 _4_ MAC  --- 13 cbr 3020 [13a 4 0 800] ------- [0:2 5:0 30 4] [13] 1 0
s 1.720940721 _4_ MAC  --- 0 ACK 38 [0 0 0 0] 
r 1.720955721 _4_ RTR  --- 13 cbr 3020 [13a 4 0 800] ------- [0:2 5:0 30 4] [13] 1 0
f 1.720955721 _4_ RTR  --- 13 cbr 3020 [13a 4 0 800] ------- [0:2 5:0 29 5] [13] 1 0