+ 0.5 0 1 tcp 40 ------- 1 0.0 2.0 0 0
- 0.5 0 1 tcp 40 ------- 1 0.0 2.0 0 0
r 0.550032 0 1 tcp 40 ------- 1 0.0 2.0 0 0
+ 0.550032 1 2 tcp 40 ------- 1 0.0 2.0 0 0
- 0.550032 1 2 tcp 40 ------- 1 0.0 2.0 0 0
r 0.656432 1 2 tcp 40 ------- 1 0.0 2.0 0 0
+ 0.656432 2 1 ack 40 ------- 1 2.0 0.0 0 1
- 0.656432 2 1 ack 40 ------- 1 2.0 0.0 0 1
r 0.762832 2 1 ack 40 ------- 1 2.0 0.0 0 1
+ 0.762832 1 0 ack 40 ------- 1 2.0 0.0 0 1
- 0.762832 1 0 ack 40 ------- 1 2.0 0.0 0 1
r 0.812864 1 0 ack 40 ------- 1 2.0 0.0 0 1
+ 0.812864 0 1 tcp 1040 ------- 1 0.0 2.0 1 2
- 0.812864 0 1 tcp 1040 ------- 1 0.0 2.0 1 2
+ 0.812864 0 1 tcp 1040 ------- 1 0.0 2.0 2 3
- 0.813696 0 1 tcp 1040 ------- 1 0.0 2.0 2 3
r 0.863696 0 1 tcp 1040 ------- 1 0.0 2.0 1 2
+ 0.863696 1 2 tcp 1040 ------- 1 0.0 2.0 1 2
- 0.863696 1 2 tcp 1040 ------- 1 0.0 2.0 1 2
r 0.864528 0 1 tcp 1040 ------- 1 0.0 2.0 2 3
+ 0.864528 1 2 tcp 1040 ------- 1 0.0 2.0 2 3
- 1.030096 1 2 tcp 1040 ------- 1 0.0 2.0 2 3
r 1.130096 1 2 tcp 1040 ------- 1 0.0 2.0 1 2
+ 1.130096 2 1 ack 40 ------- 1 2.0 0.0 1 4
- 1.130096 2 1 ack 40 ------- 1 2.0 0.0 1 4
r 1.236496 2 1 ack 40 ------- 1 2.0 0.0 1 4
+ 1.236496 1 0 ack 40 ------- 1 2.0 0.0 1 4
- 1.236496 1 0 ack 40 ------- 1 2.0 0.0 1 4
r 1.286528 1 0 ack 40 ------- 1 2.0 0.0 1 4
+ 1.286528 0 1 tcp 1040 ------- 1 0.0 2.0 3 5
- 1.286528 0 1 tcp 1040 ------- 1 0.0 2.0 3 5
+ 1.286528 0 1 tcp 1040 ------- 1 0.0 2.0 4 6
- 1.28736 0 1 tcp 1040 ------- 1 0.0 2.0 4 6
r 1.296496 1 2 tcp 1040 ------- 1 0.0 2.0 2 3
+ 1.296496 2 1 ack 40 ------- 1 2.0 0.0 2 7
- 1.296496 2 1 ack 40 ------- 1 2.0 0.0 2 7
r 1.33736 0 1 tcp 1040 ------- 1 0.0 2.0 3 5
+ 1.33736 1 2 tcp 1040 ------- 1 0.0 2.0 3 5
- 1.33736 1 2 tcp 1040 ------- 1 0.0 2.0 3 5
r 1.338192 0 1 tcp 1040 ------- 1 0.0 2.0 4 6
+ 1.338192 1 2 tcp 1040 ------- 1 0.0 2.0 4 6
r 1.402896 2 1 ack 40 ------- 1 2.0 0.0 2 7
+ 1.402896 1 0 ack 40 ------- 1 2.0 0.0 2 7
- 1.402896 1 0 ack 40 ------- 1 2.0 0.0 2 7
r 1.452928 1 0 ack 40 ------- 1 2.0 0.0 2 7
+ 1.452928 0 1 tcp 1040 ------- 1 0.0 2.0 5 8
- 1.452928 0 1 tcp 1040 ------- 1 0.0 2.0 5 8
+ 1.452928 0 1 tcp 1040 ------- 1 0.0 2.0 6 9
- 1.45376 0 1 tcp 1040 ------- 1 0.0 2.0 6 9
r 1.50376 0 1 tcp 1040 ------- 1 0.0 2.0 5 8
+ 1.50376 1 2 tcp 1040 ------- 1 0.0 2.0 5 8
- 1.50376 1 2 tcp 1040 ------- 1 0.0 2.0 4 6
r 1.504592 0 1 tcp 1040 ------- 1 0.0 2.0 6 9
+ 1.504592 1 2 tcp 1040 ------- 1 0.0 2.0 6 9
r 1.60376 1 2 tcp 1040 ------- 1 0.0 2.0 3 5
+ 1.60376 2 1 ack 40 ------- 1 2.0 0.0 3 10
- 1.60376 2 1 ack 40 ------- 1 2.0 0.0 3 10
- 1.67016 1 2 tcp 1040 ------- 1 0.0 2.0 5 8
r 1.71016 2 1 ack 40 ------- 1 2.0 0.0 3 10
+ 1.71016 1 0 ack 40 ------- 1 2.0 0.0 3 10
- 1.71016 1 0 ack 40 ------- 1 2.0 0.0 3 10
r 1.760192 1 0 ack 40 ------- 1 2.0 0.0 3 10
+ 1.760192 0 1 tcp 1040 ------- 1 0.0 2.0 7 11
- 1.760192 0 1 tcp 1040 ------- 1 0.0 2.0 7 11
+ 1.760192 0 1 tcp 1040 ------- 1 0.0 2.0 8 12
- 1.761024 0 1 tcp 1040 ------- 1 0.0 2.0 8 12
r 1.77016 1 2 tcp 1040 ------- 1 0.0 2.0 4 6
+ 1.77016 2 1 ack 40 ------- 1 2.0 0.0 4 13
- 1.77016 2 1 ack 40 ------- 1 2.0 0.0 4 13
r 1.811024 0 1 tcp 1040 ------- 1 0.0 2.0 7 11
+ 1.811024 1 2 tcp 1040 ------- 1 0.0 2.0 7 11
r 1.811856 0 1 tcp 1040 ------- 1 0.0 2.0 8 12
+ 1.811856 1 2 tcp 1040 ------- 1 0.0 2.0 8 12
- 1.83656 1 2 tcp 1040 ------- 1 0.0 2.0 6 9
r 1.87656 2 1 ack 40 ------- 1 2.0 0.0 4 13
+ 1.87656 1 0 ack 40 ------- 1 2.0 0.0 4 13
- 1.87656 1 0 ack 40 ------- 1 2.0 0.0 4 13
r 1.926592 1 0 ack 40 ------- 1 2.0 0.0 4 13
+ 1.926592 0 1 tcp 1040 ------- 1 0.0 2.0 9 14
- 1.926592 0 1 tcp 1040 ------- 1 0.0 2.0 9 14
+ 1.926592 0 1 tcp 1040 ------- 1 0.0 2.0 10 15
- 1.927424 0 1 tcp 1040 ------- 1 0.0 2.0 10 15
r 1.93656 1 2 tcp 1040 ------- 1 0.0 2.0 5 8
+ 1.93656 2 1 ack 40 ------- 1 2.0 0.0 5 16
- 1.93656 2 1 ack 40 ------- 1 2.0 0.0 5 16
r 1.977424 0 1 tcp 1040 ------- 1 0.0 2.0 9 14
+ 1.977424 1 2 tcp 1040 ------- 1 0.0 2.0 9 14
r 1.978256 0 1 tcp 1040 ------- 1 0.0 2.0 10 15
+ 1.978256 1 2 tcp 1040 ------- 1 0.0 2.0 10 15
- 2.00296 1 2 tcp 1040 ------- 1 0.0 2.0 7 11
r 2.04296 2 1 ack 40 ------- 1 2.0 0.0 5 16
+ 2.04296 1 0 ack 40 ------- 1 2.0 0.0 5 16
- 2.04296 1 0 ack 40 ------- 1 2.0 0.0 5 16
r 2.092992 1 0 ack 40 ------- 1 2.0 0.0 5 16
+ 2.092992 0 1 tcp 1040 ------- 1 0.0 2.0 11 17
- 2.092992 0 1 tcp 1040 ------- 1 0.0 2.0 11 17
+ 2.092992 0 1 tcp 1040 ------- 1 0.0 2.0 12 18
- 2.093824 0 1 tcp 1040 ------- 1 0.0 2.0 12 18
r 2.10296 1 2 tcp 1040 ------- 1 0.0 2.0 6 9
+ 2.10296 2 1 ack 40 ------- 1 2.0 0.0 6 19
- 2.10296 2 1 ack 40 ------- 1 2.0 0.0 6 19
r 2.143824 0 1 tcp 1040 ------- 1 0.0 2.0 11 17
+ 2.143824 1 2 tcp 1040 ------- 1 0.0 2.0 11 17
r 2.144656 0 1 tcp 1040 ------- 1 0.0 2.0 12 18
+ 2.144656 1 2 tcp 1040 ------- 1 0.0 2.0 12 18
- 2.16936 1 2 tcp 1040 ------- 1 0.0 2.0 8 12
r 2.20936 2 1 ack 40 ------- 1 2.0 0.0 6 19
+ 2.20936 1 0 ack 40 ------- 1 2.0 0.0 6 19
- 2.20936 1 0 ack 40 ------- 1 2.0 0.0 6 19
r 2.259392 1 0 ack 40 ------- 1 2.0 0.0 6 19
+ 2.259392 0 1 tcp 1040 ------- 1 0.0 2.0 13 20
- 2.259392 0 1 tcp 1040 ------- 1 0.0 2.0 13 20
+ 2.259392 0 1 tcp 1040 ------- 1 0.0 2.0 14 21
- 2.260224 0 1 tcp 1040 ------- 1 0.0 2.0 14 21
r 2.26936 1 2 tcp 1040 ------- 1 0.0 2.0 7 11
+ 2.26936 2 1 ack 40 ------- 1 2.0 0.0 7 22
- 2.26936 2 1 ack 40 ------- 1 2.0 0.0 7 22
r 2.310224 0 1 tcp 1040 ------- 1 0.0 2.0 13 20
+ 2.310224 1 2 tcp 1040 ------- 1 0.0 2.0 13 20
r 2.311056 0 1 tcp 1040 ------- 1 0.0 2.0 14 21
+ 2.311056 1 2 tcp 1040 ------- 1 0.0 2.0 14 21
- 2.33576 1 2 tcp 1040 ------- 1 0.0 2.0 9 14
r 2.37576 2 1 ack 40 ------- 1 2.0 0.0 7 22
+ 2.37576 1 0 ack 40 ------- 1 2.0 0.0 7 22
- 2.37576 1 0 ack 40 ------- 1 2.0 0.0 7 22
r 2.425792 1 0 ack 40 ------- 1 2.0 0.0 7 22
+ 2.425792 0 1 tcp 1040 ------- 1 0.0 2.0 15 23
- 2.425792 0 1 tcp 1040 ------- 1 0.0 2.0 15 23
+ 2.425792 0 1 tcp 1040 ------- 1 0.0 2.0 16 24
- 2.426624 0 1 tcp 1040 ------- 1 0.0 2.0 16 24
r 2.43576 1 2 tcp 1040 ------- 1 0.0 2.0 8 12
+ 2.43576 2 1 ack 40 ------- 1 2.0 0.0 8 25
- 2.43576 2 1 ack 40 ------- 1 2.0 0.0 8 25
r 2.476624 0 1 tcp 1040 ------- 1 0.0 2.0 15 23
+ 2.476624 1 2 tcp 1040 ------- 1 0.0 2.0 15 23
r 2.477456 0 1 tcp 1040 ------- 1 0.0 2.0 16 24
+ 2.477456 1 2 tcp 1040 ------- 1 0.0 2.0 16 24
- 2.50216 1 2 tcp 1040 ------- 1 0.0 2.0 10 15
r 2.54216 2 1 ack 40 ------- 1 2.0 0.0 8 25
+ 2.54216 1 0 ack 40 ------- 1 2.0 0.0 8 25
- 2.54216 1 0 ack 40 ------- 1 2.0 0.0 8 25
r 2.592192 1 0 ack 40 ------- 1 2.0 0.0 8 25
+ 2.592192 0 1 tcp 1040 ------- 1 0.0 2.0 17 26
- 2.592192 0 1 tcp 1040 ------- 1 0.0 2.0 17 26
+ 2.592192 0 1 tcp 1040 ------- 1 0.0 2.0 18 27
- 2.593024 0 1 tcp 1040 ------- 1 0.0 2.0 18 27
r 2.60216 1 2 tcp 1040 ------- 1 0.0 2.0 9 14
+ 2.60216 2 1 ack 40 ------- 1 2.0 0.0 9 28
- 2.60216 2 1 ack 40 ------- 1 2.0 0.0 9 28
r 2.643024 0 1 tcp 1040 ------- 1 0.0 2.0 17 26
+ 2.643024 1 2 tcp 1040 ------- 1 0.0 2.0 17 26
r 2.643856 0 1 tcp 1040 ------- 1 0.0 2.0 18 27
+ 2.643856 1 2 tcp 1040 ------- 1 0.0 2.0 18 27
- 2.66856 1 2 tcp 1040 ------- 1 0.0 2.0 11 17
r 2.70856 2 1 ack 40 ------- 1 2.0 0.0 9 28
+ 2.70856 1 0 ack 40 ------- 1 2.0 0.0 9 28
- 2.70856 1 0 ack 40 ------- 1 2.0 0.0 9 28
r 2.758592 1 0 ack 40 ------- 1 2.0 0.0 9 28
+ 2.758592 0 1 tcp 1040 ------- 1 0.0 2.0 19 29
- 2.758592 0 1 tcp 1040 ------- 1 0.0 2.0 19 29
+ 2.758592 0 1 tcp 1040 ------- 1 0.0 2.0 20 30
- 2.759424 0 1 tcp 1040 ------- 1 0.0 2.0 20 30
r 2.76856 1 2 tcp 1040 ------- 1 0.0 2.0 10 15
+ 2.76856 2 1 ack 40 ------- 1 2.0 0.0 10 31
- 2.76856 2 1 ack 40 ------- 1 2.0 0.0 10 31
r 2.809424 0 1 tcp 1040 ------- 1 0.0 2.0 19 29
+ 2.809424 1 2 tcp 1040 ------- 1 0.0 2.0 19 29
r 2.810256 0 1 tcp 1040 ------- 1 0.0 2.0 20 30
+ 2.810256 1 2 tcp 1040 ------- 1 0.0 2.0 20 30
- 2.83496 1 2 tcp 1040 ------- 1 0.0 2.0 12 18
r 2.87496 2 1 ack 40 ------- 1 2.0 0.0 10 31
+ 2.87496 1 0 ack 40 ------- 1 2.0 0.0 10 31
- 2.87496 1 0 ack 40 ------- 1 2.0 0.0 10 31
r 2.924992 1 0 ack 40 ------- 1 2.0 0.0 10 31
+ 2.924992 0 1 tcp 1040 ------- 1 0.0 2.0 21 32
- 2.924992 0 1 tcp 1040 ------- 1 0.0 2.0 21 32
+ 2.924992 0 1 tcp 1040 ------- 1 0.0 2.0 22 33
- 2.925824 0 1 tcp 1040 ------- 1 0.0 2.0 22 33
r 2.93496 1 2 tcp 1040 ------- 1 0.0 2.0 11 17
+ 2.93496 2 1 ack 40 ------- 1 2.0 0.0 11 34
- 2.93496 2 1 ack 40 ------- 1 2.0 0.0 11 34
r 2.975824 0 1 tcp 1040 ------- 1 0.0 2.0 21 32
+ 2.975824 1 2 tcp 1040 ------- 1 0.0 2.0 21 32
r 2.976656 0 1 tcp 1040 ------- 1 0.0 2.0 22 33
+ 2.976656 1 2 tcp 1040 ------- 1 0.0 2.0 22 33
d 2.976656 1 2 tcp 1040 ------- 1 0.0 2.0 22 33
- 3.00136 1 2 tcp 1040 ------- 1 0.0 2.0 13 20
r 3.04136 2 1 ack 40 ------- 1 2.0 0.0 11 34
+ 3.04136 1 0 ack 40 ------- 1 2.0 0.0 11 34
- 3.04136 1 0 ack 40 ------- 1 2.0 0.0 11 34
r 3.091392 1 0 ack 40 ------- 1 2.0 0.0 11 34
r 3.10136 1 2 tcp 1040 ------- 1 0.0 2.0 12 18
+ 3.10136 2 1 ack 40 ------- 1 2.0 0.0 12 35
- 3.10136 2 1 ack 40 ------- 1 2.0 0.0 12 35
- 3.16776 1 2 tcp 1040 ------- 1 0.0 2.0 14 21
r 3.20776 2 1 ack 40 ------- 1 2.0 0.0 12 35
+ 3.20776 1 0 ack 40 ------- 1 2.0 0.0 12 35
- 3.20776 1 0 ack 40 ------- 1 2.0 0.0 12 35
r 3.257792 1 0 ack 40 ------- 1 2.0 0.0 12 35
r 3.26776 1 2 tcp 1040 ------- 1 0.0 2.0 13 20
+ 3.26776 2 1 ack 40 ------- 1 2.0 0.0 13 36
- 3.26776 2 1 ack 40 ------- 1 2.0 0.0 13 36
- 3.33416 1 2 tcp 1040 ------- 1 0.0 2.0 15 23
r 3.37416 2 1 ack 40 ------- 1 2.0 0.0 13 36
+ 3.37416 1 0 ack 40 ------- 1 2.0 0.0 13 36
- 3.37416 1 0 ack 40 ------- 1 2.0 0.0 13 36
r 3.424192 1 0 ack 40 ------- 1 2.0 0.0 13 36
r 3.43416 1 2 tcp 1040 ------- 1 0.0 2.0 14 21
+ 3.43416 2 1 ack 40 ------- 1 2.0 0.0 14 37
- 3.43416 2 1 ack 40 ------- 1 2.0 0.0 14 37
- 3.50056 1 2 tcp 1040 ------- 1 0.0 2.0 16 24
r 3.54056 2 1 ack 40 ------- 1 2.0 0.0 14 37
+ 3.54056 1 0 ack 40 ------- 1 2.0 0.0 14 37
- 3.54056 1 0 ack 40 ------- 1 2.0 0.0 14 37
r 3.590592 1 0 ack 40 ------- 1 2.0 0.0 14 37
r 3.60056 1 2 tcp 1040 ------- 1 0.0 2.0 15 23
+ 3.60056 2 1 ack 40 ------- 1 2.0 0.0 15 38
- 3.60056 2 1 ack 40 ------- 1 2.0 0.0 15 38
- 3.66696 1 2 tcp 1040 ------- 1 0.0 2.0 17 26
r 3.70696 2 1 ack 40 ------- 1 2.0 0.0 15 38
+ 3.70696 1 0 ack 40 ------- 1 2.0 0.0 15 38
- 3.70696 1 0 ack 40 ------- 1 2.0 0.0 15 38
r 3.756992 1 0 ack 40 ------- 1 2.0 0.0 15 38
r 3.76696 1 2 tcp 1040 ------- 1 0.0 2.0 16 24
+ 3.76696 2 1 ack 40 ------- 1 2.0 0.0 16 39
- 3.76696 2 1 ack 40 ------- 1 2.0 0.0 16 39
- 3.83336 1 2 tcp 1040 ------- 1 0.0 2.0 18 27
r 3.87336 2 1 ack 40 ------- 1 2.0 0.0 16 39
+ 3.87336 1 0 ack 40 ------- 1 2.0 0.0 16 39
- 3.87336 1 0 ack 40 ------- 1 2.0 0.0 16 39
r 3.923392 1 0 ack 40 ------- 1 2.0 0.0 16 39
r 3.93336 1 2 tcp 1040 ------- 1 0.0 2.0 17 26
+ 3.93336 2 1 ack 40 ------- 1 2.0 0.0 17 40
- 3.93336 2 1 ack 40 ------- 1 2.0 0.0 17 40
- 3.99976 1 2 tcp 1040 ------- 1 0.0 2.0 19 29
