+ 0.5 0 2 tcp 40 ------- 1 0.0 3.0 0 0
- 0.5 0 2 tcp 40 ------- 1 0.0 3.0 0 0
r 0.600064 0 2 tcp 40 ------- 1 0.0 3.0 0 0
+ 0.600064 2 3 tcp 40 ------- 1 0.0 3.0 0 0
- 0.600064 2 3 tcp 40 ------- 1 0.0 3.0 0 0
r 0.620384 2 3 tcp 40 ------- 1 0.0 3.0 0 0
+ 0.620384 3 2 ack 40 ------- 1 3.0 0.0 0 1
- 0.620384 3 2 ack 40 ------- 1 3.0 0.0 0 1
r 0.640704 3 2 ack 40 ------- 1 3.0 0.0 0 1
+ 0.640704 2 0 ack 40 ------- 1 3.0 0.0 0 1
- 0.640704 2 0 ack 40 ------- 1 3.0 0.0 0 1
r 0.740768 2 0 ack 40 ------- 1 3.0 0.0 0 1
+ 0.740768 0 2 tcp 1040 ------- 1 0.0 3.0 1 2
- 0.740768 0 2 tcp 1040 ------- 1 0.0 3.0 1 2
+ 0.740768 0 2 tcp 1040 ------- 1 0.0 3.0 2 3
- 0.742432 0 2 tcp 1040 ------- 1 0.0 3.0 2 3
r 0.842432 0 2 tcp 1040 ------- 1 0.0 3.0 1 2
+ 0.842432 2 3 tcp 1040 ------- 1 0.0 3.0 1 2
- 0.842432 2 3 tcp 1040 ------- 1 0.0 3.0 1 2
r 0.844096 0 2 tcp 1040 ------- 1 0.0 3.0 2 3
+ 0.844096 2 3 tcp 1040 ------- 1 0.0 3.0 2 3
- 0.850752 2 3 tcp 1040 ------- 1 0.0 3.0 2 3
r 0.870752 2 3 tcp 1040 ------- 1 0.0 3.0 1 2
+ 0.870752 3 2 ack 40 ------- 1 3.0 0.0 1 4
- 0.870752 3 2 ack 40 ------- 1 3.0 0.0 1 4
r 0.879072 2 3 tcp 1040 ------- 1 0.0 3.0 2 3
+ 0.879072 3 2 ack 40 ------- 1 3.0 0.0 2 5
- 0.879072 3 2 ack 40 ------- 1 3.0 0.0 2 5
r 0.891072 3 2 ack 40 ------- 1 3.0 0.0 1 4
+ 0.891072 2 0 ack 40 ------- 1 3.0 0.0 1 4
- 0.891072 2 0 ack 40 ------- 1 3.0 0.0 1 4
r 0.899392 3 2 ack 40 ------- 1 3.0 0.0 2 5
+ 0.899392 2 0 ack 40 ------- 1 3.0 0.0 2 5
- 0.899392 2 0 ack 40 ------- 1 3.0 0.0 2 5
r 0.991136 2 0 ack 40 ------- 1 3.0 0.0 1 4
+ 0.991136 0 2 tcp 1040 ------- 1 0.0 3.0 3 6
- 0.991136 0 2 tcp 1040 ------- 1 0.0 3.0 3 6
+ 0.991136 0 2 tcp 1040 ------- 1 0.0 3.0 4 7
- 0.9928 0 2 tcp 1040 ------- 1 0.0 3.0 4 7
r 0.999456 2 0 ack 40 ------- 1 3.0 0.0 2 5
+ 0.999456 0 2 tcp 1040 ------- 1 0.0 3.0 5 8
- 0.999456 0 2 tcp 1040 ------- 1 0.0 3.0 5 8
+ 0.999456 0 2 tcp 1040 ------- 1 0.0 3.0 6 9
- 1.00112 0 2 tcp 1040 ------- 1 0.0 3.0 6 9
r 1.0928 0 2 tcp 1040 ------- 1 0.0 3.0 3 6
+ 1.0928 2 3 tcp 1040 ------- 1 0.0 3.0 3 6
- 1.0928 2 3 tcp 1040 ------- 1 0.0 3.0 3 6
r 1.094464 0 2 tcp 1040 ------- 1 0.0 3.0 4 7
+ 1.094464 2 3 tcp 1040 ------- 1 0.0 3.0 4 7
r 1.10112 0 2 tcp 1040 ------- 1 0.0 3.0 5 8
+ 1.10112 2 3 tcp 1040 ------- 1 0.0 3.0 5 8
- 1.10112 2 3 tcp 1040 ------- 1 0.0 3.0 4 7
r 1.102784 0 2 tcp 1040 ------- 1 0.0 3.0 6 9
+ 1.102784 2 3 tcp 1040 ------- 1 0.0 3.0 6 9
- 1.10944 2 3 tcp 1040 ------- 1 0.0 3.0 5 8
- 1.11776 2 3 tcp 1040 ------- 1 0.0 3.0 6 9
r 1.12112 2 3 tcp 1040 ------- 1 0.0 3.0 3 6
+ 1.12112 3 2 ack 40 ------- 1 3.0 0.0 3 10
- 1.12112 3 2 ack 40 ------- 1 3.0 0.0 3 10
r 1.12944 2 3 tcp 1040 ------- 1 0.0 3.0 4 7
+ 1.12944 3 2 ack 40 ------- 1 3.0 0.0 4 11
- 1.12944 3 2 ack 40 ------- 1 3.0 0.0 4 11
r 1.13776 2 3 tcp 1040 ------- 1 0.0 3.0 5 8
+ 1.13776 3 2 ack 40 ------- 1 3.0 0.0 5 12
- 1.13776 3 2 ack 40 ------- 1 3.0 0.0 5 12
r 1.14144 3 2 ack 40 ------- 1 3.0 0.0 3 10
+ 1.14144 2 0 ack 40 ------- 1 3.0 0.0 3 10
- 1.14144 2 0 ack 40 ------- 1 3.0 0.0 3 10
r 1.14608 2 3 tcp 1040 ------- 1 0.0 3.0 6 9
+ 1.14608 3 2 ack 40 ------- 1 3.0 0.0 6 13
- 1.14608 3 2 ack 40 ------- 1 3.0 0.0 6 13
r 1.14976 3 2 ack 40 ------- 1 3.0 0.0 4 11
+ 1.14976 2 0 ack 40 ------- 1 3.0 0.0 4 11
- 1.14976 2 0 ack 40 ------- 1 3.0 0.0 4 11
r 1.15808 3 2 ack 40 ------- 1 3.0 0.0 5 12
+ 1.15808 2 0 ack 40 ------- 1 3.0 0.0 5 12
- 1.15808 2 0 ack 40 ------- 1 3.0 0.0 5 12
r 1.1664 3 2 ack 40 ------- 1 3.0 0.0 6 13
+ 1.1664 2 0 ack 40 ------- 1 3.0 0.0 6 13
- 1.1664 2 0 ack 40 ------- 1 3.0 0.0 6 13
r 1.241504 2 0 ack 40 ------- 1 3.0 0.0 3 10
+ 1.241504 0 2 tcp 1040 ------- 1 0.0 3.0 7 14
- 1.241504 0 2 tcp 1040 ------- 1 0.0 3.0 7 14
+ 1.241504 0 2 tcp 1040 ------- 1 0.0 3.0 8 15
- 1.243168 0 2 tcp 1040 ------- 1 0.0 3.0 8 15
r 1.249824 2 0 ack 40 ------- 1 3.0 0.0 4 11
+ 1.249824 0 2 tcp 1040 ------- 1 0.0 3.0 9 16
- 1.249824 0 2 tcp 1040 ------- 1 0.0 3.0 9 16
+ 1.249824 0 2 tcp 1040 ------- 1 0.0 3.0 10 17
- 1.251488 0 2 tcp 1040 ------- 1 0.0 3.0 10 17
r 1.258144 2 0 ack 40 ------- 1 3.0 0.0 5 12
+ 1.258144 0 2 tcp 1040 ------- 1 0.0 3.0 11 18
- 1.258144 0 2 tcp 1040 ------- 1 0.0 3.0 11 18
+ 1.258144 0 2 tcp 1040 ------- 1 0.0 3.0 12 19
- 1.259808 0 2 tcp 1040 ------- 1 0.0 3.0 12 19
r 1.266464 2 0 ack 40 ------- 1 3.0 0.0 6 13
+ 1.266464 0 2 tcp 1040 ------- 1 0.0 3.0 13 20
- 1.266464 0 2 tcp 1040 ------- 1 0.0 3.0 13 20
+ 1.266464 0 2 tcp 1040 ------- 1 0.0 3.0 14 21
- 1.268128 0 2 tcp 1040 ------- 1 0.0 3.0 14 21
r 1.343168 0 2 tcp 1040 ------- 1 0.0 3.0 7 14
+ 1.343168 2 3 tcp 1040 ------- 1 0.0 3.0 7 14
- 1.343168 2 3 tcp 1040 ------- 1 0.0 3.0 7 14
r 1.344832 0 2 tcp 1040 ------- 1 0.0 3.0 8 15
+ 1.344832 2 3 tcp 1040 ------- 1 0.0 3.0 8 15
r 1.351488 0 2 tcp 1040 ------- 1 0.0 3.0 9 16
+ 1.351488 2 3 tcp 1040 ------- 1 0.0 3.0 9 16
- 1.351488 2 3 tcp 1040 ------- 1 0.0 3.0 8 15
r 1.353152 0 2 tcp 1040 ------- 1 0.0 3.0 10 17
+ 1.353152 2 3 tcp 1040 ------- 1 0.0 3.0 10 17
r 1.359808 0 2 tcp 1040 ------- 1 0.0 3.0 11 18
+ 1.359808 2 3 tcp 1040 ------- 1 0.0 3.0 11 18
- 1.359808 2 3 tcp 1040 ------- 1 0.0 3.0 9 16
r 1.361472 0 2 tcp 1040 ------- 1 0.0 3.0 12 19
+ 1.361472 2 3 tcp 1040 ------- 1 0.0 3.0 12 19
r 1.368128 0 2 tcp 1040 ------- 1 0.0 3.0 13 20
+ 1.368128 2 3 tcp 1040 ------- 1 0.0 3.0 13 20
- 1.368128 2 3 tcp 1040 ------- 1 0.0 3.0 10 17
r 1.369792 0 2 tcp 1040 ------- 1 0.0 3.0 14 21
+ 1.369792 2 3 tcp 1040 ------- 1 0.0 3.0 14 21
r 1.371488 2 3 tcp 1040 ------- 1 0.0 3.0 7 14
+ 1.371488 3 2 ack 40 ------- 1 3.0 0.0 7 22
- 1.371488 3 2 ack 40 ------- 1 3.0 0.0 7 22
- 1.376448 2 3 tcp 1040 ------- 1 0.0 3.0 11 18
r 1.379808 2 3 tcp 1040 ------- 1 0.0 3.0 8 15
+ 1.379808 3 2 ack 40 ------- 1 3.0 0.0 8 23
- 1.379808 3 2 ack 40 ------- 1 3.0 0.0 8 23
- 1.384768 2 3 tcp 1040 ------- 1 0.0 3.0 12 19
r 1.388128 2 3 tcp 1040 ------- 1 0.0 3.0 9 16
+ 1.388128 3 2 ack 40 ------- 1 3.0 0.0 9 24
- 1.388128 3 2 ack 40 ------- 1 3.0 0.0 9 24
r 1.391808 3 2 ack 40 ------- 1 3.0 0.0 7 22
+ 1.391808 2 0 ack 40 ------- 1 3.0 0.0 7 22
- 1.391808 2 0 ack 40 ------- 1 3.0 0.0 7 22
- 1.393088 2 3 tcp 1040 ------- 1 0.0 3.0 13 20
r 1.396448 2 3 tcp 1040 ------- 1 0.0 3.0 10 17
+ 1.396448 3 2 ack 40 ------- 1 3.0 0.0 10 25
- 1.396448 3 2 ack 40 ------- 1 3.0 0.0 10 25
r 1.400128 3 2 ack 40 ------- 1 3.0 0.0 8 23
+ 1.400128 2 0 ack 40 ------- 1 3.0 0.0 8 23
- 1.400128 2 0 ack 40 ------- 1 3.0 0.0 8 23
- 1.401408 2 3 tcp 1040 ------- 1 0.0 3.0 14 21
r 1.404768 2 3 tcp 1040 ------- 1 0.0 3.0 11 18
+ 1.404768 3 2 ack 40 ------- 1 3.0 0.0 11 26
- 1.404768 3 2 ack 40 ------- 1 3.0 0.0 11 26
r 1.408448 3 2 ack 40 ------- 1 3.0 0.0 9 24
+ 1.408448 2 0 ack 40 ------- 1 3.0 0.0 9 24
- 1.408448 2 0 ack 40 ------- 1 3.0 0.0 9 24
r 1.413088 2 3 tcp 1040 ------- 1 0.0 3.0 12 19
+ 1.413088 3 2 ack 40 ------- 1 3.0 0.0 12 27
- 1.413088 3 2 ack 40 ------- 1 3.0 0.0 12 27
r 1.416768 3 2 ack 40 ------- 1 3.0 0.0 10 25
+ 1.416768 2 0 ack 40 ------- 1 3.0 0.0 10 25
- 1.416768 2 0 ack 40 ------- 1 3.0 0.0 10 25
r 1.421408 2 3 tcp 1040 ------- 1 0.0 3.0 13 20
+ 1.421408 3 2 ack 40 ------- 1 3.0 0.0 13 28
- 1.421408 3 2 ack 40 ------- 1 3.0 0.0 13 28
r 1.425088 3 2 ack 40 ------- 1 3.0 0.0 11 26
+ 1.425088 2 0 ack 40 ------- 1 3.0 0.0 11 26
- 1.425088 2 0 ack 40 ------- 1 3.0 0.0 11 26
r 1.429728 2 3 tcp 1040 ------- 1 0.0 3.0 14 21
+ 1.429728 3 2 ack 40 ------- 1 3.0 0.0 14 29
- 1.429728 3 2 ack 40 ------- 1 3.0 0.0 14 29
r 1.433408 3 2 ack 40 ------- 1 3.0 0.0 12 27
+ 1.433408 2 0 ack 40 ------- 1 3.0 0.0 12 27
- 1.433408 2 0 ack 40 ------- 1 3.0 0.0 12 27
r 1.441728 3 2 ack 40 ------- 1 3.0 0.0 13 28
+ 1.441728 2 0 ack 40 ------- 1 3.0 0.0 13 28
- 1.441728 2 0 ack 40 ------- 1 3.0 0.0 13 28
r 1.450048 3 2 ack 40 ------- 1 3.0 0.0 14 29
+ 1.450048 2 0 ack 40 ------- 1 3.0 0.0 14 29
- 1.450048 2 0 ack 40 ------- 1 3.0 0.0 14 29
r 1.491872 2 0 ack 40 ------- 1 3.0 0.0 7 22
+ 1.491872 0 2 tcp 1040 ------- 1 0.0 3.0 15 30
- 1.491872 0 2 tcp 1040 ------- 1 0.0 3.0 15 30
+ 1.491872 0 2 tcp 1040 ------- 1 0.0 3.0 16 31
- 1.493536 0 2 tcp 1040 ------- 1 0.0 3.0 16 31
r 1.500192 2 0 ack 40 ------- 1 3.0 0.0 8 23
+ 1.500192 0 2 tcp 1040 ------- 1 0.0 3.0 17 32
- 1.500192 0 2 tcp 1040 ------- 1 0.0 3.0 17 32
+ 1.500192 0 2 tcp 1040 ------- 1 0.0 3.0 18 33
- 1.501856 0 2 tcp 1040 ------- 1 0.0 3.0 18 33
r 1.508512 2 0 ack 40 ------- 1 3.0 0.0 9 24
+ 1.508512 0 2 tcp 1040 ------- 1 0.0 3.0 19 34
- 1.508512 0 2 tcp 1040 ------- 1 0.0 3.0 19 34
+ 1.508512 0 2 tcp 1040 ------- 1 0.0 3.0 20 35
- 1.510176 0 2 tcp 1040 ------- 1 0.0 3.0 20 35
r 1.516832 2 0 ack 40 ------- 1 3.0 0.0 10 25
+ 1.516832 0 2 tcp 1040 ------- 1 0.0 3.0 21 36
- 1.516832 0 2 tcp 1040 ------- 1 0.0 3.0 21 36
+ 1.516832 0 2 tcp 1040 ------- 1 0.0 3.0 22 37
- 1.518496 0 2 tcp 1040 ------- 1 0.0 3.0 22 37
r 1.525152 2 0 ack 40 ------- 1 3.0 0.0 11 26
+ 1.525152 0 2 tcp 1040 ------- 1 0.0 3.0 23 38
- 1.525152 0 2 tcp 1040 ------- 1 0.0 3.0 23 38
+ 1.525152 0 2 tcp 1040 ------- 1 0.0 3.0 24 39
- 1.526816 0 2 tcp 1040 ------- 1 0.0 3.0 24 39
r 1.533472 2 0 ack 40 ------- 1 3.0 0.0 12 27
+ 1.533472 0 2 tcp 1040 ------- 1 0.0 3.0 25 40
- 1.533472 0 2 tcp 1040 ------- 1 0.0 3.0 25 40
+ 1.533472 0 2 tcp 1040 ------- 1 0.0 3.0 26 41
- 1.535136 0 2 tcp 1040 ------- 1 0.0 3.0 26 41
r 1.541792 2 0 ack 40 ------- 1 3.0 0.0 13 28
+ 1.541792 0 2 tcp 1040 ------- 1 0.0 3.0 27 42
- 1.541792 0 2 tcp 1040 ------- 1 0.0 3.0 27 42
+ 1.541792 0 2 tcp 1040 ------- 1 0.0 3.0 28 43
- 1.543456 0 2 tcp 1040 ------- 1 0.0 3.0 28 43
r 1.550112 2 0 ack 40 ------- 1 3.0 0.0 14 29
+ 1.550112 0 2 tcp 1040 ------- 1 0.0 3.0 29 44
- 1.550112 0 2 tcp 1040 ------- 1 0.0 3.0 29 44
+ 1.550112 0 2 tcp 1040 ------- 1 0.0 3.0 30 45
- 1.551776 0 2 tcp 1040 ------- 1 0.0 3.0 30 45
r 1.593536 0 2 tcp 1040 ------- 1 0.0 3.0 15 30
+ 1.593536 2 3 tcp 1040 ------- 1 0.0 3.0 15 30
- 1.593536 2 3 tcp 1040 ------- 1 0.0 3.0 15 30
r 1.5952 0 2 tcp 1040 ------- 1 0.0 3.0 16 31
+ 1.5952 2 3 tcp 1040 ------- 1 0.0 3.0 16 31
r 1.601856 0 2 tcp 1040 ------- 1 0.0 3.0 17 32
+ 1.601856 2 3 tcp 1040 ------- 1 0.0 3.0 17 32
- 1.601856 2 3 tcp 1040 ------- 1 0.0 3.0 16 31
r 1.60352 0 2 tcp 1040 ------- 1 0.0 3.0 18 33
+ 1.60352 2 3 tcp 1040 ------- 1 0.0 3.0 18 33
r 1.610176 0 2 tcp 1040 ------- 1 0.0 3.0 19 34
+ 1.610176 2 3 tcp 1040 ------- 1 0.0 3.0 19 34
- 1.610176 2 3 tcp 1040 ------- 1 0.0 3.0 17 32
r 1.61184 0 2 tcp 1040 ------- 1 0.0 3.0 20 35
+ 1.61184 2 3 tcp 1040 ------- 1 0.0 3.0 20 35
r 1.618496 0 2 tcp 1040 ------- 1 0.0 3.0 21 36
+ 1.618496 2 3 tcp 1040 ------- 1 0.0 3.0 21 36
- 1.618496 2 3 tcp 1040 ------- 1 0.0 3.0 18 33
r 1.62016 0 2 tcp 1040 ------- 1 0.0 3.0 22 37
+ 1.62016 2 3 tcp 1040 ------- 1 0.0 3.0 22 37
r 1.621856 2 3 tcp 1040 ------- 1 0.0 3.0 15 30
+ 1.621856 3 2 ack 40 ------- 1 3.0 0.0 15 46
- 1.621856 3 2 ack 40 ------- 1 3.0 0.0 15 46
r 1.626816 0 2 tcp 1040 ------- 1 0.0 3.0 23 38
+ 1.626816 2 3 tcp 1040 ------- 1 0.0 3.0 23 38
- 1.626816 2 3 tcp 1040 ------- 1 0.0 3.0 19 34
r 1.62848 0 2 tcp 1040 ------- 1 0.0 3.0 24 39
+ 1.62848 2 3 tcp 1040 ------- 1 0.0 3.0 24 39
r 1.630176 2 3 tcp 1040 ------- 1 0.0 3.0 16 31
+ 1.630176 3 2 ack 40 ------- 1 3.0 0.0 16 47
- 1.630176 3 2 ack 40 ------- 1 3.0 0.0 16 47
r 1.635136 0 2 tcp 1040 ------- 1 0.0 3.0 25 40
+ 1.635136 2 3 tcp 1040 ------- 1 0.0 3.0 25 40
- 1.635136 2 3 tcp 1040 ------- 1 0.0 3.0 20 35
r 1.6368 0 2 tcp 1040 ------- 1 0.0 3.0 26 41
+ 1.6368 2 3 tcp 1040 ------- 1 0.0 3.0 26 41
r 1.638496 2 3 tcp 1040 ------- 1 0.0 3.0 17 32
+ 1.638496 3 2 ack 40 ------- 1 3.0 0.0 17 48
- 1.638496 3 2 ack 40 ------- 1 3.0 0.0 17 48
r 1.642176 3 2 ack 40 ------- 1 3.0 0.0 15 46
+ 1.642176 2 0 ack 40 ------- 1 3.0 0.0 15 46
- 1.642176 2 0 ack 40 ------- 1 3.0 0.0 15 46
r 1.643456 0 2 tcp 1040 ------- 1 0.0 3.0 27 42
+ 1.643456 2 3 tcp 1040 ------- 1 0.0 3.0 27 42
- 1.643456 2 3 tcp 1040 ------- 1 0.0 3.0 21 36
r 1.64512 0 2 tcp 1040 ------- 1 0.0 3.0 28 43
+ 1.64512 2 3 tcp 1040 ------- 1 0.0 3.0 28 43
r 1.646816 2 3 tcp 1040 ------- 1 0.0 3.0 18 33
+ 1.646816 3 2 ack 40 ------- 1 3.0 0.0 18 49
- 1.646816 3 2 ack 40 ------- 1 3.0 0.0 18 49
r 1.650496 3 2 ack 40 ------- 1 3.0 0.0 16 47
+ 1.650496 2 0 ack 40 ------- 1 3.0 0.0 16 47
- 1.650496 2 0 ack 40 ------- 1 3.0 0.0 16 47
r 1.651776 0 2 tcp 1040 ------- 1 0.0 3.0 29 44
+ 1.651776 2 3 tcp 1040 ------- 1 0.0 3.0 29 44
- 1.651776 2 3 tcp 1040 ------- 1 0.0 3.0 22 37
r 1.65344 0 2 tcp 1040 ------- 1 0.0 3.0 30 45
+ 1.65344 2 3 tcp 1040 ------- 1 0.0 3.0 30 45
r 1.655136 2 3 tcp 1040 ------- 1 0.0 3.0 19 34
+ 1.655136 3 2 ack 40 ------- 1 3.0 0.0 19 50
- 1.655136 3 2 ack 40 ------- 1 3.0 0.0 19 50
r 1.658816 3 2 ack 40 ------- 1 3.0 0.0 17 48
+ 1.658816 2 0 ack 40 ------- 1 3.0 0.0 17 48
- 1.658816 2 0 ack 40 ------- 1 3.0 0.0 17 48
- 1.660096 2 3 tcp 1040 ------- 1 0.0 3.0 23 38
r 1.663456 2 3 tcp 1040 ------- 1 0.0 3.0 20 35
+ 1.663456 3 2 ack 40 ------- 1 3.0 0.0 20 51
- 1.663456 3 2 ack 40 ------- 1 3.0 0.0 20 51
r 1.667136 3 2 ack 40 ------- 1 3.0 0.0 18 49
+ 1.667136 2 0 ack 40 ------- 1 3.0 0.0 18 49
- 1.667136 2 0 ack 40 ------- 1 3.0 0.0 18 49
- 1.668416 2 3 tcp 1040 ------- 1 0.0 3.0 24 39
r 1.671776 2 3 tcp 1040 ------- 1 0.0 3.0 21 36
+ 1.671776 3 2 ack 40 ------- 1 3.0 0.0 21 52
- 1.671776 3 2 ack 40 ------- 1 3.0 0.0 21 52
r 1.675456 3 2 ack 40 ------- 1 3.0 0.0 19 50
+ 1.675456 2 0 ack 40 ------- 1 3.0 0.0 19 50
- 1.675456 2 0 ack 40 ------- 1 3.0 0.0 19 50
- 1.676736 2 3 tcp 1040 ------- 1 0.0 3.0 25 40
r 1.680096 2 3 tcp 1040 ------- 1 0.0 3.0 22 37
+ 1.680096 3 2 ack 40 ------- 1 3.0 0.0 22 53
- 1.680096 3 2 ack 40 ------- 1 3.0 0.0 22 53
r 1.683776 3 2 ack 40 ------- 1 3.0 0.0 20 51
+ 1.683776 2 0 ack 40 ------- 1 3.0 0.0 20 51
- 1.683776 2 0 ack 40 ------- 1 3.0 0.0 20 51
- 1.685056 2 3 tcp 1040 ------- 1 0.0 3.0 26 41
r 1.688416 2 3 tcp 1040 ------- 1 0.0 3.0 23 38
+ 1.688416 3 2 ack 40 ------- 1 3.0 0.0 23 54
- 1.688416 3 2 ack 40 ------- 1 3.0 0.0 23 54
r 1.692096 3 2 ack 40 ------- 1 3.0 0.0 21 52
+ 1.692096 2 0 ack 40 ------- 1 3.0 0.0 21 52
- 1.692096 2 0 ack 40 ------- 1 3.0 0.0 21 52
- 1.693376 2 3 tcp 1040 ------- 1 0.0 3.0 27 42
r 1.696736 2 3 tcp 1040 ------- 1 0.0 3.0 24 39
+ 1.696736 3 2 ack 40 ------- 1 3.0 0.0 24 55
- 1.696736 3 2 ack 40 ------- 1 3.0 0.0 24 55
r 1.700416 3 2 ack 40 ------- 1 3.0 0.0 22 53
+ 1.700416 2 0 ack 40 ------- 1 3.0 0.0 22 53
- 1.700416 2 0 ack 40 ------- 1 3.0 0.0 22 53
- 1.701696 2 3 tcp 1040 ------- 1 0.0 3.0 28 43
r 1.705056 2 3 tcp 1040 ------- 1 0.0 3.0 25 40
+ 1.705056 3 2 ack 40 ------- 1 3.0 0.0 25 56
- 1.705056 3 2 ack 40 ------- 1 3.0 0.0 25 56
r 1.708736 3 2 ack 40 ------- 1 3.0 0.0 23 54
+ 1.708736 2 0 ack 40 ------- 1 3.0 0.0 23 54
- 1.708736 2 0 ack 40 ------- 1 3.0 0.0 23 54
- 1.710016 2 3 tcp 1040 ------- 1 0.0 3.0 29 44
r 1.713376 2 3 tcp 1040 ------- 1 0.0 3.0 26 41
+ 1.713376 3 2 ack 40 ------- 1 3.0 0.0 26 57
- 1.713376 3 2 ack 40 ------- 1 3.0 0.0 26 57
r 1.717056 3 2 ack 40 ------- 1 3.0 0.0 24 55
+ 1.717056 2 0 ack 40 ------- 1 3.0 0.0 24 55
- 1.717056 2 0 ack 40 ------- 1 3.0 0.0 24 55
- 1.718336 2 3 tcp 1040 ------- 1 0.0 3.0 30 45
r 1.721696 2 3 tcp 1040 ------- 1 0.0 3.0 27 42
+ 1.721696 3 2 ack 40 ------- 1 3.0 0.0 27 58
- 1.721696 3 2 ack 40 ------- 1 3.0 0.0 27 58
r 1.725376 3 2 ack 40 ------- 1 3.0 0.0 25 56
+ 1.725376 2 0 ack 40 ------- 1 3.0 0.0 25 56
- 1.725376 2 0 ack 40 ------- 1 3.0 0.0 25 56
r 1.730016 2 3 tcp 1040 ------- 1 0.0 3.0 28 43
+ 1.730016 3 2 ack 40 ------- 1 3.0 0.0 28 59
- 1.730016 3 2 ack 40 ------- 1 3.0 0.0 28 59
r 1.733696 3 2 ack 40 ------- 1 3.0 0.0 26 57
+ 1.733696 2 0 ack 40 ------- 1 3.0 0.0 26 57
- 1.733696 2 0 ack 40 ------- 1 3.0 0.0 26 57
r 1.738336 2 3 tcp 1040 ------- 1 0.0 3.0 29 44
+ 1.738336 3 2 ack 40 ------- 1 3.0 0.0 29 60
- 1.738336 3 2 ack 40 ------- 1 3.0 0.0 29 60
r 1.742016 3 2 ack 40 ------- 1 3.0 0.0 27 58
+ 1.742016 2 0 ack 40 ------- 1 3.0 0.0 27 58
- 1.742016 2 0 ack 40 ------- 1 3.0 0.0 27 58
r 1.74224 2 0 ack 40 ------- 1 3.0 0.0 15 46
+ 1.74224 0 2 tcp 1040 ------- 1 0.0 3.0 31 61
- 1.74224 0 2 tcp 1040 ------- 1 0.0 3.0 31 61
+ 1.74224 0 2 tcp 1040 ------- 1 0.0 3.0 32 62
- 1.743904 0 2 tcp 1040 ------- 1 0.0 3.0 32 62
r 1.746656 2 3 tcp 1040 ------- 1 0.0 3.0 30 45
+ 1.746656 3 2 ack 40 ------- 1 3.0 0.0 30 63
- 1.746656 3 2 ack 40 ------- 1 3.0 0.0 30 63
r 1.750336 3 2 ack 40 ------- 1 3.0 0.0 28 59
+ 1.750336 2 0 ack 40 ------- 1 3.0 0.0 28 59
- 1.750336 2 0 ack 40 ------- 1 3.0 0.0 28 59
r 1.75056 2 0 ack 40 ------- 1 3.0 0.0 16 47
+ 1.75056 0 2 tcp 1040 ------- 1 0.0 3.0 33 64
- 1.75056 0 2 tcp 1040 ------- 1 0.0 3.0 33 64
+ 1.75056 0 2 tcp 1040 ------- 1 0.0 3.0 34 65
- 1.752224 0 2 tcp 1040 ------- 1 0.0 3.0 34 65
r 1.758656 3 2 ack 40 ------- 1 3.0 0.0 29 60
+ 1.758656 2 0 ack 40 ------- 1 3.0 0.0 29 60
- 1.758656 2 0 ack 40 ------- 1 3.0 0.0 29 60
r 1.75888 2 0 ack 40 ------- 1 3.0 0.0 17 48
+ 1.75888 0 2 tcp 1040 ------- 1 0.0 3.0 35 66
- 1.75888 0 2 tcp 1040 ------- 1 0.0 3.0 35 66
+ 1.75888 0 2 tcp 1040 ------- 1 0.0 3.0 36 67
- 1.760544 0 2 tcp 1040 ------- 1 0.0 3.0 36 67
r 1.766976 3 2 ack 40 ------- 1 3.0 0.0 30 63
+ 1.766976 2 0 ack 40 ------- 1 3.0 0.0 30 63
- 1.766976 2 0 ack 40 ------- 1 3.0 0.0 30 63
r 1.7672 2 0 ack 40 ------- 1 3.0 0.0 18 49
+ 1.7672 0 2 tcp 1040 ------- 1 0.0 3.0 37 68
- 1.7672 0 2 tcp 1040 ------- 1 0.0 3.0 37 68
+ 1.7672 0 2 tcp 1040 ------- 1 0.0 3.0 38 69
- 1.768864 0 2 tcp 1040 ------- 1 0.0 3.0 38 69
r 1.77552 2 0 ack 40 ------- 1 3.0 0.0 19 50
+ 1.77552 0 2 tcp 1040 ------- 1 0.0 3.0 39 70
- 1.77552 0 2 tcp 1040 ------- 1 0.0 3.0 39 70
r 1.78384 2 0 ack 40 ------- 1 3.0 0.0 20 51
+ 1.78384 0 2 tcp 1040 ------- 1 0.0 3.0 40 71
- 1.78384 0 2 tcp 1040 ------- 1 0.0 3.0 40 71
r 1.79216 2 0 ack 40 ------- 1 3.0 0.0 21 52
+ 1.79216 0 2 tcp 1040 ------- 1 0.0 3.0 41 72
- 1.79216 0 2 tcp 1040 ------- 1 0.0 3.0 41 72
r 1.80048 2 0 ack 40 ------- 1 3.0 0.0 22 53
+ 1.80048 0 2 tcp 1040 ------- 1 0.0 3.0 42 73
- 1.80048 0 2 tcp 1040 ------- 1 0.0 3.0 42 73
r 1.8088 2 0 ack 40 ------- 1 3.0 0.0 23 54
+ 1.8088 0 2 tcp 1040 ------- 1 0.0 3.0 43 74
- 1.8088 0 2 tcp 1040 ------- 1 0.0 3.0 43 74
r 1.81712 2 0 ack 40 ------- 1 3.0 0.0 24 55
+ 1.81712 0 2 tcp 1040 ------- 1 0.0 3.0 44 75
- 1.81712 0 2 tcp 1040 ------- 1 0.0 3.0 44 75
r 1.82544 2 0 ack 40 ------- 1 3.0 0.0 25 56
+ 1.82544 0 2 tcp 1040 ------- 1 0.0 3.0 45 76
- 1.82544 0 2 tcp 1040 ------- 1 0.0 3.0 45 76
r 1.83376 2 0 ack 40 ------- 1 3.0 0.0 26 57
+ 1.83376 0 2 tcp 1040 ------- 1 0.0 3.0 46 77
- 1.83376 0 2 tcp 1040 ------- 1 0.0 3.0 46 77
r 1.84208 2 0 ack 40 ------- 1 3.0 0.0 27 58
+ 1.84208 0 2 tcp 1040 ------- 1 0.0 3.0 47 78
- 1.84208 0 2 tcp 1040 ------- 1 0.0 3.0 47 78
r 1.843904 0 2 tcp 1040 ------- 1 0.0 3.0 31 61
+ 1.843904 2 3 tcp 1040 ------- 1 0.0 3.0 31 61
- 1.843904 2 3 tcp 1040 ------- 1 0.0 3.0 31 61
r 1.845568 0 2 tcp 1040 ------- 1 0.0 3.0 32 62
+ 1.845568 2 3 tcp 1040 ------- 1 0.0 3.0 32 62
r 1.8504 2 0 ack 40 ------- 1 3.0 0.0 28 59
+ 1.8504 0 2 tcp 1040 ------- 1 0.0 3.0 48 79
- 1.8504 0 2 tcp 1040 ------- 1 0.0 3.0 48 79
r 1.852224 0 2 tcp 1040 ------- 1 0.0 3.0 33 64
+ 1.852224 2 3 tcp 1040 ------- 1 0.0 3.0 33 64
- 1.852224 2 3 tcp 1040 ------- 1 0.0 3.0 32 62
r 1.853888 0 2 tcp 1040 ------- 1 0.0 3.0 34 65
+ 1.853888 2 3 tcp 1040 ------- 1 0.0 3.0 34 65
r 1.85872 2 0 ack 40 ------- 1 3.0 0.0 29 60
+ 1.85872 0 2 tcp 1040 ------- 1 0.0 3.0 49 80
- 1.85872 0 2 tcp 1040 ------- 1 0.0 3.0 49 80
r 1.860544 0 2 tcp 1040 ------- 1 0.0 3.0 35 66
+ 1.860544 2 3 tcp 1040 ------- 1 0.0 3.0 35 66
- 1.860544 2 3 tcp 1040 ------- 1 0.0 3.0 33 64
r 1.862208 0 2 tcp 1040 ------- 1 0.0 3.0 36 67
+ 1.862208 2 3 tcp 1040 ------- 1 0.0 3.0 36 67
r 1.86704 2 0 ack 40 ------- 1 3.0 0.0 30 63
+ 1.86704 0 2 tcp 1040 ------- 1 0.0 3.0 50 81
- 1.86704 0 2 tcp 1040 ------- 1 0.0 3.0 50 81
r 1.868864 0 2 tcp 1040 ------- 1 0.0 3.0 37 68
+ 1.868864 2 3 tcp 1040 ------- 1 0.0 3.0 37 68
- 1.868864 2 3 tcp 1040 ------- 1 0.0 3.0 34 65
r 1.870528 0 2 tcp 1040 ------- 1 0.0 3.0 38 69
+ 1.870528 2 3 tcp 1040 ------- 1 0.0 3.0 38 69
r 1.872224 2 3 tcp 1040 ------- 1 0.0 3.0 31 61
+ 1.872224 3 2 ack 40 ------- 1 3.0 0.0 31 82
- 1.872224 3 2 ack 40 ------- 1 3.0 0.0 31 82
r 1.877184 0 2 tcp 1040 ------- 1 0.0 3.0 39 70
+ 1.877184 2 3 tcp 1040 ------- 1 0.0 3.0 39 70
- 1.877184 2 3 tcp 1040 ------- 1 0.0 3.0 35 66
r 1.880544 2 3 tcp 1040 ------- 1 0.0 3.0 32 62
+ 1.880544 3 2 ack 40 ------- 1 3.0 0.0 32 83
- 1.880544 3 2 ack 40 ------- 1 3.0 0.0 32 83
r 1.885504 0 2 tcp 1040 ------- 1 0.0 3.0 40 71
+ 1.885504 2 3 tcp 1040 ------- 1 0.0 3.0 40 71
- 1.885504 2 3 tcp 1040 ------- 1 0.0 3.0 36 67
r 1.888864 2 3 tcp 1040 ------- 1 0.0 3.0 33 64
+ 1.888864 3 2 ack 40 ------- 1 3.0 0.0 33 84
- 1.888864 3 2 ack 40 ------- 1 3.0 0.0 33 84
r 1.892544 3 2 ack 40 ------- 1 3.0 0.0 31 82
+ 1.892544 2 0 ack 40 ------- 1 3.0 0.0 31 82
- 1.892544 2 0 ack 40 ------- 1 3.0 0.0 31 82
r 1.893824 0 2 tcp 1040 ------- 1 0.0 3.0 41 72
+ 1.893824 2 3 tcp 1040 ------- 1 0.0 3.0 41 72
- 1.893824 2 3 tcp 1040 ------- 1 0.0 3.0 37 68
r 1.897184 2 3 tcp 1040 ------- 1 0.0 3.0 34 65
+ 1.897184 3 2 ack 40 ------- 1 3.0 0.0 34 85
- 1.897184 3 2 ack 40 ------- 1 3.0 0.0 34 85
r 1.900864 3 2 ack 40 ------- 1 3.0 0.0 32 83
+ 1.900864 2 0 ack 40 ------- 1 3.0 0.0 32 83
- 1.900864 2 0 ack 40 ------- 1 3.0 0.0 32 83
r 1.902144 0 2 tcp 1040 ------- 1 0.0 3.0 42 73
+ 1.902144 2 3 tcp 1040 ------- 1 0.0 3.0 42 73
- 1.902144 2 3 tcp 1040 ------- 1 0.0 3.0 38 69
r 1.905504 2 3 tcp 1040 ------- 1 0.0 3.0 35 66
+ 1.905504 3 2 ack 40 ------- 1 3.0 0.0 35 86
- 1.905504 3 2 ack 40 ------- 1 3.0 0.0 35 86
r 1.909184 3 2 ack 40 ------- 1 3.0 0.0 33 84
+ 1.909184 2 0 ack 40 ------- 1 3.0 0.0 33 84
- 1.909184 2 0 ack 40 ------- 1 3.0 0.0 33 84
r 1.910464 0 2 tcp 1040 ------- 1 0.0 3.0 43 74
+ 1.910464 2 3 tcp 1040 ------- 1 0.0 3.0 43 74
- 1.910464 2 3 tcp 1040 ------- 1 0.0 3.0 39 70
r 1.913824 2 3 tcp 1040 ------- 1 0.0 3.0 36 67
+ 1.913824 3 2 ack 40 ------- 1 3.0 0.0 36 87
- 1.913824 3 2 ack 40 ------- 1 3.0 0.0 36 87
r 1.917504 3 2 ack 40 ------- 1 3.0 0.0 34 85
+ 1.917504 2 0 ack 40 ------- 1 3.0 0.0 34 85
- 1.917504 2 0 ack 40 ------- 1 3.0 0.0 34 85
r 1.918784 0 2 tcp 1040 ------- 1 0.0 3.0 44 75
+ 1.918784 2 3 tcp 1040 ------- 1 0.0 3.0 44 75
- 1.918784 2 3 tcp 1040 ------- 1 0.0 3.0 40 71
r 1.922144 2 3 tcp 1040 ------- 1 0.0 3.0 37 68
+ 1.922144 3 2 ack 40 ------- 1 3.0 0.0 37 88
- 1.922144 3 2 ack 40 ------- 1 3.0 0.0 37 88
r 1.925824 3 2 ack 40 ------- 1 3.0 0.0 35 86
+ 1.925824 2 0 ack 40 ------- 1 3.0 0.0 35 86
- 1.925824 2 0 ack 40 ------- 1 3.0 0.0 35 86
r 1.927104 0 2 tcp 1040 ------- 1 0.0 3.0 45 76
+ 1.927104 2 3 tcp 1040 ------- 1 0.0 3.0 45 76
- 1.927104 2 3 tcp 1040 ------- 1 0.0 3.0 41 72
r 1.930464 2 3 tcp 1040 ------- 1 0.0 3.0 38 69
+ 1.930464 3 2 ack 40 ------- 1 3.0 0.0 38 89
- 1.930464 3 2 ack 40 ------- 1 3.0 0.0 38 89
r 1.934144 3 2 ack 40 ------- 1 3.0 0.0 36 87
+ 1.934144 2 0 ack 40 ------- 1 3.0 0.0 36 87
- 1.934144 2 0 ack 40 ------- 1 3.0 0.0 36 87
r 1.935424 0 2 tcp 1040 ------- 1 0.0 3.0 46 77
+ 1.935424 2 3 tcp 1040 ------- 1 0.0 3.0 46 77
- 1.935424 2 3 tcp 1040 ------- 1 0.0 3.0 42 73
r 1.938784 2 3 tcp 1040 ------- 1 0.0 3.0 39 70
+ 1.938784 3 2 ack 40 ------- 1 3.0 0.0 39 90
- 1.938784 3 2 ack 40 ------- 1 3.0 0.0 39 90
r 1.942464 3 2 ack 40 ------- 1 3.0 0.0 37 88
+ 1.942464 2 0 ack 40 ------- 1 3.0 0.0 37 88
- 1.942464 2 0 ack 40 ------- 1 3.0 0.0 37 88
r 1.943744 0 2 tcp 1040 ------- 1 0.0 3.0 47 78
+ 1.943744 2 3 tcp 1040 ------- 1 0.0 3.0 47 78
- 1.943744 2 3 tcp 1040 ------- 1 0.0 3.0 43 74
r 1.947104 2 3 tcp 1040 ------- 1 0.0 3.0 40 71
+ 1.947104 3 2 ack 40 ------- 1 3.0 0.0 40 91
- 1.947104 3 2 ack 40 ------- 1 3.0 0.0 40 91
r 1.950784 3 2 ack 40 ------- 1 3.0 0.0 38 89
+ 1.950784 2 0 ack 40 ------- 1 3.0 0.0 38 89
- 1.950784 2 0 ack 40 ------- 1 3.0 0.0 38 89
r 1.952064 0 2 tcp 1040 ------- 1 0.0 3.0 48 79
+ 1.952064 2 3 tcp 1040 ------- 1 0.0 3.0 48 79
- 1.952064 2 3 tcp 1040 ------- 1 0.0 3.0 44 75
r 1.955424 2 3 tcp 1040 ------- 1 0.0 3.0 41 72
+ 1.955424 3 2 ack 40 ------- 1 3.0 0.0 41 92
- 1.955424 3 2 ack 40 ------- 1 3.0 0.0 41 92
r 1.959104 3 2 ack 40 ------- 1 3.0 0.0 39 90
+ 1.959104 2 0 ack 40 ------- 1 3.0 0.0 39 90
- 1.959104 2 0 ack 40 ------- 1 3.0 0.0 39 90
r 1.960384 0 2 tcp 1040 ------- 1 0.0 3.0 49 80
+ 1.960384 2 3 tcp 1040 ------- 1 0.0 3.0 49 80
- 1.960384 2 3 tcp 1040 ------- 1 0.0 3.0 45 76
r 1.963744 2 3 tcp 1040 ------- 1 0.0 3.0 42 73
+ 1.963744 3 2 ack 40 ------- 1 3.0 0.0 42 93
- 1.963744 3 2 ack 40 ------- 1 3.0 0.0 42 93
r 1.967424 3 2 ack 40 ------- 1 3.0 0.0 40 91
+ 1.967424 2 0 ack 40 ------- 1 3.0 0.0 40 91
- 1.967424 2 0 ack 40 ------- 1 3.0 0.0 40 91
r 1.968704 0 2 tcp 1040 ------- 1 0.0 3.0 50 81
+ 1.968704 2 3 tcp 1040 ------- 1 0.0 3.0 50 81
- 1.968704 2 3 tcp 1040 ------- 1 0.0 3.0 46 77
r 1.972064 2 3 tcp 1040 ------- 1 0.0 3.0 43 74
+ 1.972064 3 2 ack 40 ------- 1 3.0 0.0 43 94
- 1.972064 3 2 ack 40 ------- 1 3.0 0.0 43 94
r 1.975744 3 2 ack 40 ------- 1 3.0 0.0 41 92
+ 1.975744 2 0 ack 40 ------- 1 3.0 0.0 41 92
- 1.975744 2 0 ack 40 ------- 1 3.0 0.0 41 92
- 1.977024 2 3 tcp 1040 ------- 1 0.0 3.0 47 78
r 1.980384 2 3 tcp 1040 ------- 1 0.0 3.0 44 75
+ 1.980384 3 2 ack 40 ------- 1 3.0 0.0 44 95
- 1.980384 3 2 ack 40 ------- 1 3.0 0.0 44 95
r 1.984064 3 2 ack 40 ------- 1 3.0 0.0 42 93
+ 1.984064 2 0 ack 40 ------- 1 3.0 0.0 42 93
- 1.984064 2 0 ack 40 ------- 1 3.0 0.0 42 93
- 1.985344 2 3 tcp 1040 ------- 1 0.0 3.0 48 79
r 1.988704 2 3 tcp 1040 ------- 1 0.0 3.0 45 76
+ 1.988704 3 2 ack 40 ------- 1 3.0 0.0 45 96
- 1.988704 3 2 ack 40 ------- 1 3.0 0.0 45 96
r 1.992384 3 2 ack 40 ------- 1 3.0 0.0 43 94
+ 1.992384 2 0 ack 40 ------- 1 3.0 0.0 43 94
- 1.992384 2 0 ack 40 ------- 1 3.0 0.0 43 94
r 1.992608 2 0 ack 40 ------- 1 3.0 0.0 31 82
+ 1.992608 0 2 tcp 1040 ------- 1 0.0 3.0 51 97
- 1.992608 0 2 tcp 1040 ------- 1 0.0 3.0 51 97
- 1.993664 2 3 tcp 1040 ------- 1 0.0 3.0 49 80
r 1.997024 2 3 tcp 1040 ------- 1 0.0 3.0 46 77
+ 1.997024 3 2 ack 40 ------- 1 3.0 0.0 46 98
- 1.997024 3 2 ack 40 ------- 1 3.0 0.0 46 98
r 2.000704 3 2 ack 40 ------- 1 3.0 0.0 44 95
+ 2.000704 2 0 ack 40 ------- 1 3.0 0.0 44 95
- 2.000704 2 0 ack 40 ------- 1 3.0 0.0 44 95
r 2.000928 2 0 ack 40 ------- 1 3.0 0.0 32 83
+ 2.000928 0 2 tcp 1040 ------- 1 0.0 3.0 52 99
- 2.000928 0 2 tcp 1040 ------- 1 0.0 3.0 52 99
- 2.001984 2 3 tcp 1040 ------- 1 0.0 3.0 50 81
r 2.005344 2 3 tcp 1040 ------- 1 0.0 3.0 47 78
+ 2.005344 3 2 ack 40 ------- 1 3.0 0.0 47 100
- 2.005344 3 2 ack 40 ------- 1 3.0 0.0 47 100
r 2.009024 3 2 ack 40 ------- 1 3.0 0.0 45 96
+ 2.009024 2 0 ack 40 ------- 1 3.0 0.0 45 96
- 2.009024 2 0 ack 40 ------- 1 3.0 0.0 45 96
r 2.009248 2 0 ack 40 ------- 1 3.0 0.0 33 84
+ 2.009248 0 2 tcp 1040 ------- 1 0.0 3.0 53 101
- 2.009248 0 2 tcp 1040 ------- 1 0.0 3.0 53 101
r 2.013664 2 3 tcp 1040 ------- 1 0.0 3.0 48 79
+ 2.013664 3 2 ack 40 ------- 1 3.0 0.0 48 102
- 2.013664 3 2 ack 40 ------- 1 3.0 0.0 48 102
r 2.017344 3 2 ack 40 ------- 1 3.0 0.0 46 98
+ 2.017344 2 0 ack 40 ------- 1 3.0 0.0 46 98
- 2.017344 2 0 ack 40 ------- 1 3.0 0.0 46 98
r 2.017568 2 0 ack 40 ------- 1 3.0 0.0 34 85
+ 2.017568 0 2 tcp 1040 ------- 1 0.0 3.0 54 103
- 2.017568 0 2 tcp 1040 ------- 1 0.0 3.0 54 103
r 2.021984 2 3 tcp 1040 ------- 1 0.0 3.0 49 80
+ 2.021984 3 2 ack 40 ------- 1 3.0 0.0 49 104
- 2.021984 3 2 ack 40 ------- 1 3.0 0.0 49 104
r 2.025664 3 2 ack 40 ------- 1 3.0 0.0 47 100
+ 2.025664 2 0 ack 40 ------- 1 3.0 0.0 47 100
- 2.025664 2 0 ack 40 ------- 1 3.0 0.0 47 100
r 2.025888 2 0 ack 40 ------- 1 3.0 0.0 35 86
+ 2.025888 0 2 tcp 1040 ------- 1 0.0 3.0 55 105
- 2.025888 0 2 tcp 1040 ------- 1 0.0 3.0 55 105
r 2.030304 2 3 tcp 1040 ------- 1 0.0 3.0 50 81
+ 2.030304 3 2 ack 40 ------- 1 3.0 0.0 50 106
- 2.030304 3 2 ack 40 ------- 1 3.0 0.0 50 106
r 2.033984 3 2 ack 40 ------- 1 3.0 0.0 48 102
+ 2.033984 2 0 ack 40 ------- 1 3.0 0.0 48 102
- 2.033984 2 0 ack 40 ------- 1 3.0 0.0 48 102
r 2.034208 2 0 ack 40 ------- 1 3.0 0.0 36 87
+ 2.034208 0 2 tcp 1040 ------- 1 0.0 3.0 56 107
- 2.034208 0 2 tcp 1040 ------- 1 0.0 3.0 56 107
r 2.042304 3 2 ack 40 ------- 1 3.0 0.0 49 104
+ 2.042304 2 0 ack 40 ------- 1 3.0 0.0 49 104
- 2.042304 2 0 ack 40 ------- 1 3.0 0.0 49 104
r 2.042528 2 0 ack 40 ------- 1 3.0 0.0 37 88
+ 2.042528 0 2 tcp 1040 ------- 1 0.0 3.0 57 108
- 2.042528 0 2 tcp 1040 ------- 1 0.0 3.0 57 108
r 2.050624 3 2 ack 40 ------- 1 3.0 0.0 50 106
+ 2.050624 2 0 ack 40 ------- 1 3.0 0.0 50 106
- 2.050624 2 0 ack 40 ------- 1 3.0 0.0 50 106
r 2.050848 2 0 ack 40 ------- 1 3.0 0.0 38 89
+ 2.050848 0 2 tcp 1040 ------- 1 0.0 3.0 58 109
- 2.050848 0 2 tcp 1040 ------- 1 0.0 3.0 58 109
r 2.059168 2 0 ack 40 ------- 1 3.0 0.0 39 90
+ 2.059168 0 2 tcp 1040 ------- 1 0.0 3.0 59 110
- 2.059168 0 2 tcp 1040 ------- 1 0.0 3.0 59 110
r 2.067488 2 0 ack 40 ------- 1 3.0 0.0 40 91
+ 2.067488 0 2 tcp 1040 ------- 1 0.0 3.0 60 111
- 2.067488 0 2 tcp 1040 ------- 1 0.0 3.0 60 111
r 2.075808 2 0 ack 40 ------- 1 3.0 0.0 41 92
+ 2.075808 0 2 tcp 1040 ------- 1 0.0 3.0 61 112
- 2.075808 0 2 tcp 1040 ------- 1 0.0 3.0 61 112
r 2.084128 2 0 ack 40 ------- 1 3.0 0.0 42 93
+ 2.084128 0 2 tcp 1040 ------- 1 0.0 3.0 62 113
- 2.084128 0 2 tcp 1040 ------- 1 0.0 3.0 62 113
r 2.092448 2 0 ack 40 ------- 1 3.0 0.0 43 94
+ 2.092448 0 2 tcp 1040 ------- 1 0.0 3.0 63 114
- 2.092448 0 2 tcp 1040 ------- 1 0.0 3.0 63 114
r 2.094272 0 2 tcp 1040 ------- 1 0.0 3.0 51 97
+ 2.094272 2 3 tcp 1040 ------- 1 0.0 3.0 51 97
- 2.094272 2 3 tcp 1040 ------- 1 0.0 3.0 51 97
r 2.100768 2 0 ack 40 ------- 1 3.0 0.0 44 95
+ 2.100768 0 2 tcp 1040 ------- 1 0.0 3.0 64 115
- 2.100768 0 2 tcp 1040 ------- 1 0.0 3.0 64 115
r 2.102592 0 2 tcp 1040 ------- 1 0.0 3.0 52 99
+ 2.102592 2 3 tcp 1040 ------- 1 0.0 3.0 52 99
- 2.102592 2 3 tcp 1040 ------- 1 0.0 3.0 52 99
r 2.109088 2 0 ack 40 ------- 1 3.0 0.0 45 96
+ 2.109088 0 2 tcp 1040 ------- 1 0.0 3.0 65 116
- 2.109088 0 2 tcp 1040 ------- 1 0.0 3.0 65 116