M 0.00000 0 (0.00, 0.00, 0.00), (100.00, 100.00), 3000.00
M 0.00000 1 (0.00, 0.00, 0.00), (200.00, 200.00), 3000.00
M 0.00000 2 (0.00, 0.00, 0.00), (300.00, 200.00), 3000.00
M 0.00000 3 (0.00, 0.00, 0.00), (400.00, 300.00), 3000.00
M 0.00000 4 (0.00, 0.00, 0.00), (500.00, 300.00), 3000.00
M 0.00000 5 (0.00, 0.00, 0.00), (600.00, 400.00), 3000.00
s 0.500000000 _0_ AGT  --- 0 cbr 1000 [0 0 0 0] ------- [0:2 5:0 32 0] [0] 0 0
r 0.500000000 _0_ RTR  --- 0 cbr 1000 [0 0 0 0] ------- [0:2 5:0 32 0] [0] 0 0
s 0.500000000 _0_ RTR  --- 0 AODV 48 [0 0 0 0] ------- [0:255 -1:255 30 0] [0x2 1 1 [5 0] [0 4]] (REQUEST)
s 0.500235000 _0_ MAC  --- 0 AODV 106 [0 ffffffff 0 800] ------- [0:255 -1:255 30 0] [0x2 1 1 [5 0] [0 4]] (REQUEST)
r 0.501083471 _1_ MAC  --- 0 AODV 48 [0 ffffffff 0 800] ------- [0:255 -1:255 30 0] [0x2 1 1 [5 0] [0 4]] (REQUEST)
r 0.501083745 _2_ MAC  --- 0 AODV 48 [0 ffffffff 0 800] ------- [0:255 -1:255 30 0] [0x2 1 1 [5 0] [0 4]] (REQUEST)
r 0.501108471 _1_ RTR  --- 0 AODV 48 [0 ffffffff 0 800] ------- [0:255 -1:255 30 0] [0x2 1 1 [5 0] [0 4]] (REQUEST)
r 0.501108745 _2_ RTR  --- 0 AODV 48 [0 ffffffff 0 800] ------- [0:255 -1:255 30 0] [0x2 1 1 [5 0] [0 4]] (REQUEST)
s 0.503454489 _1_ RTR  --- 0 AODV 48 [0 ffffffff 0 800] ------- [1:255 -1:255 29 0] [0x2 2 1 [5 0] [0 4]] (REQUEST)
s 0.503789489 _1_ MAC  --- 0 AODV 106 [0 ffffffff 1 800] ------- [1:255 -1:255 29 0] [0x2 2 1 [5 0] [0 4]] (REQUEST)
r 0.504637822 _2_ MAC  --- 0 AODV 48 [0 ffffffff 1 800] ------- [1:255 -1:255 29 0] [0x2 2 1 [5 0] [0 4]] (REQUEST)
r 0.504637960 _0_ MAC  --- 0 AODV 48 [0 ffffffff 1 800] ------- [1:255 -1:255 29 0] [0x2 2 1 [5 0] [0 4]] (REQUEST)
r 0.504638234 _3_ MAC  --- 0 AODV 48 [0 ffffffff 1 800] ------- [1:255 -1:255 29 0] [0x2 2 1 [5 0] [0 4]] (REQUEST)
r 0.504662822 _2_ RTR  --- 0 AODV 48 [0 ffffffff 1 800] ------- [1:255 -1:255 29 0] [0x2 2 1 [5 0] [0 4]] (REQUEST)
r 0.504662960 _0_ RTR  --- 0 AODV 48 [0 ffffffff 1 800] ------- [1:255 -1:255 29 0] [0x2 2 1 [5 0] [0 4]] (REQUEST)
r 0.504663234 _3_ RTR  --- 0 AODV 48 [0 ffffffff 1 800] ------- [1:255 -1:255 29 0] [0x2 2 1 [5 0] [0 4]] (REQUEST)
s 0.506304688 _3_ RTR  --- 0 AODV 48 [0 ffffffff 1 800] ------- [3:255 -1:255 28 0] [0x2 3 1 [5 0] [0 4]] (REQUEST)
s 0.506919688 _3_ MAC  --- 0 AODV 106 [0 ffffffff 3 800] ------- [3:255 -1:255 28 0] [0x2 3 1 [5 0] [0 4]] (REQUEST)
s 0.507497397 _2_ RTR  --- 0 AODV 48 [0 ffffffff 0 800] ------- [2:255 -1:255 29 0] [0x2 2 1 [5 0] [0 4]] (REQUEST)
r 0.507768022 _4_ MAC  --- 0 AODV 48 [0 ffffffff 3 800] ------- [3:255 -1:255 28 0] [0x2 3 1 [5 0] [0 4]] (REQUEST)
r 0.507768160 _2_ MAC  --- 0 AODV 48 [0 ffffffff 3 800] ------- [3:255 -1:255 28 0] [0x2 3 1 [5 0] [0 4]] (REQUEST)
r 0.507768434 _1_ MAC  --- 0 AODV 48 [0 ffffffff 3 800] ------- [3:255 -1:255 28 0] [0x2 3 1 [5 0] [0 4]] (REQUEST)
r 0.507768434 _5_ MAC  --- 0 AODV 48 [0 ffffffff 3 800] ------- [3:255 -1:255 28 0] [0x2 3 1 [5 0] [0 4]] (REQUEST)
r 0.507793022 _4_ RTR  --- 0 AODV 48 [0 ffffffff 3 800] ------- [3:255 -1:255 28 0] [0x2 3 1 [5 0] [0 4]] (REQUEST)
r 0.507793160 _2_ RTR  --- 0 AODV 48 [0 ffffffff 3 800] ------- [3:255 -1:255 28 0] [0x2 3 1 [5 0] [0 4]] (REQUEST)
r 0.507793434 _1_ RTR  --- 0 AODV 48 [0 ffffffff 3 800] ------- [3:255 -1:255 28 0] [0x2 3 1 [5 0] [0 4]] (REQUEST)
r 0.507793434 _5_ RTR  --- 0 AODV 48 [0 ffffffff 3 800] ------- [3:255 -1:255 28 0] [0x2 3 1 [5 0] [0 4]] (REQUEST)
s 0.507793434 _5_ RTR  --- 0 AODV 44 [0 0 0 0] ------- [5:255 0:255 30 3] [0x4 1 [5 4] 10.000000] (REPLY)
s 0.507978160 _2_ MAC  --- 0 AODV 106 [0 ffffffff 2 800] ------- [2:255 -1:255 29 0] [0x2 2 1 [5 0] [0 4]] (REQUEST)
r 0.508826493 _1_ MAC  --- 0 AODV 48 [0 ffffffff 2 800] ------- [2:255 -1:255 29 0] [0x2 2 1 [5 0] [0 4]] (REQUEST)
r 0.508826631 _3_ MAC  --- 0 AODV 48 [0 ffffffff 2 800] ------- [2:255 -1:255 29 0] [0x2 2 1 [5 0] [0 4]] (REQUEST)
r 0.508826905 _0_ MAC  --- 0 AODV 48 [0 ffffffff 2 800] ------- [2:255 -1:255 29 0] [0x2 2 1 [5 0] [0 4]] (REQUEST)
r 0.508826905 _4_ MAC  --- 0 AODV 48 [0 ffffffff 2 800] ------- [2:255 -1:255 29 0] [0x2 2 1 [5 0] [0 4]] (REQUEST)
r 0.508851493 _1_ RTR  --- 0 AODV 48 [0 ffffffff 2 800] ------- [2:255 -1:255 29 0] [0x2 2 1 [5 0] [0 4]] (REQUEST)
r 0.508851631 _3_ RTR  --- 0 AODV 48 [0 ffffffff 2 800] ------- [2:255 -1:255 29 0] [0x2 2 1 [5 0] [0 4]] (REQUEST)
r 0.508851905 _0_ RTR  --- 0 AODV 48 [0 ffffffff 2 800] ------- [2:255 -1:255 29 0] [0x2 2 1 [5 0] [0 4]] (REQUEST)
r 0.508851905 _4_ RTR  --- 0 AODV 48 [0 ffffffff 2 800] ------- [2:255 -1:255 29 0] [0x2 2 1 [5 0] [0 4]] (REQUEST)
s 0.509281362 _5_ MAC  --- 0 ARP 86 [0 ffffffff 5 806] ------- [REQUEST 5/5 0/3]
r 0.509969833 _4_ MAC  --- 0 ARP 28 [0 ffffffff 5 806] ------- [REQUEST 5/5 0/3]
r 0.509970107 _3_ MAC  --- 0 ARP 28 [0 ffffffff 5 806] ------- [REQUEST 5/5 0/3]
s 0.510345107 _3_ MAC  --- 0 RTS 44 [52e 5 3 0] 
r 0.510697852 _5_ MAC  --- 0 RTS 44 [52e 5 3 0] 
s 0.510707852 _5_ MAC  --- 0 CTS 38 [3f4 3 0 0] 
r 0.511012598 _3_ MAC  --- 0 CTS 38 [3f4 3 0 0] 
s 0.511022598 _3_ MAC  --- 0 ARP 86 [13a 5 3 806] ------- [REPLY 3/3 5/5]
r 0.511711343 _5_ MAC  --- 0 ARP 28 [13a 5 3 806] ------- [REPLY 3/3 5/5]
s 0.511721343 _5_ MAC  --- 0 ACK 38 [0 3 0 0] 
r 0.512026088 _3_ MAC  --- 0 ACK 38 [0 3 0 0] 
s 0.512095343 _5_ MAC  --- 0 RTS 44 [5ae 3 5 0] 
r 0.512448088 _3_ MAC  --- 0 RTS 44 [5ae 3 5 0] 
s 0.512458088 _3_ MAC  --- 0 CTS 38 [474 5 0 0] 
r 0.512762834 _5_ MAC  --- 0 CTS 38 [474 5 0 0] 
s 0.512772834 _5_ MAC  --- 0 AODV 102 [13a 3 5 800] ------- [5:255 0:255 30 3] [0x4 1 [5 4] 10.000000] (REPLY)
r 0.513589579 _3_ MAC  --- 0 AODV 44 [13a 3 5 800] ------- [5:255 0:255 30 3] [0x4 1 [5 4] 10.000000] (REPLY)
s 0.513599579 _3_ MAC  --- 0 ACK 38 [0 5 0 0] 
r 0.513614579 _3_ RTR  --- 0 AODV 44 [13a 3 5 800] ------- [5:255 0:255 30 3] [0x4 1 [5 4] 10.000000] (REPLY)
f 0.513614579 _3_ RTR  --- 0 AODV 44 [13a 3 5 800] ------- [5:255 0:255 29 1] [0x4 2 [5 4] 10.000000] (REPLY)
r 0.513904324 _5_ MAC  --- 0 ACK 38 [0 5 0 0] 
s 0.514133579 _3_ MAC  --- 0 ARP 86 [0 ffffffff 3 806] ------- [REQUEST 3/3 0/1]
r 0.514821912 _4_ MAC  --- 0 ARP 28 [0 ffffffff 3 806] ------- [REQUEST 3/3 0/1]
r 0.514822050 _2_ MAC  --- 0 ARP 28 [0 ffffffff 3 806] ------- [REQUEST 3/3 0/1]
r 0.514822324 _1_ MAC  --- 0 ARP 28 [0 ffffffff 3 806] ------- [REQUEST 3/3 0/1]
r 0.514822324 _5_ MAC  --- 0 ARP 28 [0 ffffffff 3 806] ------- [REQUEST 3/3 0/1]
s 0.515117324 _1_ MAC  --- 0 RTS 44 [52e 3 1 0] 
r 0.515470070 _3_ MAC  --- 0 RTS 44 [52e 3 1 0] 
s 0.515480070 _3_ MAC  --- 0 CTS 38 [3f4 1 0 0] 
r 0.515784815 _1_ MAC  --- 0 CTS 38 [3f4 1 0 0] 
s 0.515794815 _1_ MAC  --- 0 ARP 86 [13a 3 1 806] ------- [REPLY 1/1 3/3]
s 0.516390299 _4_ RTR  --- 0 AODV 48 [0 ffffffff 3 800] ------- [4:255 -1:255 27 0] [0x2 4 1 [5 0] [0 4]] (REQUEST)
r 0.516483561 _3_ MAC  --- 0 ARP 28 [13a 3 1 806] ------- [REPLY 1/1 3/3]
s 0.516493561 _3_ MAC  --- 0 ACK 38 [0 1 0 0] 
r 0.516798306 _1_ MAC  --- 0 ACK 38 [0 1 0 0] 
s 0.517027561 _3_ MAC  --- 0 RTS 44 [5ae 1 3 0] 
r 0.517380306 _1_ MAC  --- 0 RTS 44 [5ae 1 3 0] 
s 0.517390306 _1_ MAC  --- 0 CTS 38 [474 3 0 0] 
r 0.517695051 _3_ MAC  --- 0 CTS 38 [474 3 0 0] 
s 0.517705051 _3_ MAC  --- 0 AODV 102 [13a 1 3 800] ------- [5:255 0:255 29 1] [0x4 2 [5 4] 10.000000] (REPLY)
r 0.518521797 _1_ MAC  --- 0 AODV 44 [13a 1 3 800] ------- [5:255 0:255 29 1] [0x4 2 [5 4] 10.000000] (REPLY)
s 0.518531797 _1_ MAC  --- 0 ACK 38 [0 3 0 0] 
r 0.518546797 _1_ RTR  --- 0 AODV 44 [13a 1 3 800] ------- [5:255 0:255 29 1] [0x4 2 [5 4] 10.000000] (REPLY)
f 0.518546797 _1_ RTR  --- 0 AODV 44 [13a 1 3 800] ------- [5:255 0:255 28 0] [0x4 3 [5 4] 10.000000] (REPLY)
r 0.518836542 _3_ MAC  --- 0 ACK 38 [0 3 0 0] 
s 0.519305797 _1_ MAC  --- 0 ARP 86 [0 ffffffff 1 806] ------- [REQUEST 1/1 0/0]
r 0.519994130 _2_ MAC  --- 0 ARP 28 [0 ffffffff 1 806] ------- [REQUEST 1/1 0/0]
r 0.519994268 _0_ MAC  --- 0 ARP 28 [0 ffffffff 1 806] ------- [REQUEST 1/1 0/0]
r 0.519994542 _3_ MAC  --- 0 ARP 28 [0 ffffffff 1 806] ------- [REQUEST 1/1 0/0]
s 0.520409268 _0_ MAC  --- 0 RTS 44 [52e 1 0 0] 
r 0.520761739 _1_ MAC  --- 0 RTS 44 [52e 1 0 0] 
s 0.520771739 _1_ MAC  --- 0 CTS 38 [3f4 0 0 0] 
r 0.521076211 _0_ MAC  --- 0 CTS 38 [3f4 0 0 0] 
s 0.521086211 _0_ MAC  --- 0 ARP 86 [13a 1 0 806] ------- [REPLY 0/0 1/1]
r 0.521774682 _1_ MAC  --- 0 ARP 28 [13a 1 0 806] ------- [REPLY 0/0 1/1]
s 0.521784682 _1_ MAC  --- 0 ACK 38 [0 0 0 0] 
r 0.522089154 _0_ MAC  --- 0 ACK 38 [0 0 0 0] 
s 0.522318682 _1_ MAC  --- 0 RTS 44 [5ae 0 1 0] 
r 0.522671154 _0_ MAC  --- 0 RTS 44 [5ae 0 1 0] 
s 0.522681154 _0_ MAC  --- 0 CTS 38 [474 1 0 0] 
r 0.522985625 _1_ MAC  --- 0 CTS 38 [474 1 0 0] 
s 0.522995625 _1_ MAC  --- 0 AODV 102 [13a 0 1 800] ------- [5:255 0:255 28 0] [0x4 3 [5 4] 10.000000] (REPLY)
r 0.523812096 _0_ MAC  --- 0 AODV 44 [13a 0 1 800] ------- [5:255 0:255 28 0] [0x4 3 [5 4] 10.000000] (REPLY)
s 0.523822096 _0_ MAC  --- 0 ACK 38 [0 1 0 0] 
r 0.523837096 _0_ RTR  --- 0 AODV 44 [13a 0 1 800] ------- [5:255 0:255 28 0] [0x4 3 [5 4] 10.000000] (REPLY)
s 0.523837096 _0_ RTR  --- 0 cbr 1020 [0 0 0 0] ------- [0:2 5:0 30 1] [0] 0 0
r 0.524126568 _1_ MAC  --- 0 ACK 38 [0 1 0 0] 
s 0.524476096 _0_ MAC  --- 0 RTS 44 [242e 1 0 0] 
r 0.524828568 _1_ MAC  --- 0 RTS 44 [242e 1 0 0] 
s 0.524838568 _1_ MAC  --- 0 CTS 38 [22f4 0 0 0] 
r 0.525143039 _0_ MAC  --- 0 CTS 38 [22f4 0 0 0] 
s 0.525153039 _0_ MAC  --- 0 cbr 1078 [13a 1 0 800] ------- [0:2 5:0 30 1] [0] 0 0
s 0.530000000 _0_ AGT  --- 1 cbr 1000 [0 0 0 0] ------- [0:2 5:0 32 0] [1] 0 0
r 0.530000000 _0_ RTR  --- 1 cbr 1000 [0 0 0 0] ------- [0:2 5:0 32 0] [1] 0 0
s 0.530000000 _0_ RTR  --- 1 cbr 1020 [0 0 0 0] ------- [0:2 5:0 30 1] [1] 0 0
r 0.533777511 _1_ MAC  --- 0 cbr 1020 [13a 1 0 800] ------- [0:2 5:0 30 1] [0] 1 0
s 0.533787511 _1_ MAC  --- 0 ACK 38 [0 0 0 0] 
r 0.533802511 _1_ RTR  --- 0 cbr 1020 [13a 1 0 800] ------- [0:2 5:0 30 1] [0] 1 0
D 0.533802511 _1_ RTR LOOP 0 cbr 1020 [13a 1 0 800] ------- [0:2 5:0 29 1] [0] 1 0
D 0.533802511 _1_ RTR  TTL 0 tcp 0 [0 0 0 0] ------- [0:0 0:0 0 0] [0 0] 0 0
r 0.534091982 _0_ MAC  --- 0 ACK 38 [0 0 0 0] 
s 0.534281982 _0_ MAC  --- 0 RTS 44 [242e 1 0 0] 
r 0.534634453 _1_ MAC  --- 0 RTS 44 [242e 1 0 0] 
s 0.534644453 _1_ MAC  --- 0 CTS 38 [22f4 0 0 0] 
r 0.534948925 _0_ MAC  --- 0 CTS 38 [22f4 0 0 0] 
s 0.534958925 _0_ MAC  --- 1 cbr 1078 [13a 1 0 800] ------- [0:2 5:0 30 1] [1] 0 0
r 0.543583396 _1_ MAC  --- 1 cbr 1020 [13a 1 0 800] ------- [0:2 5:0 30 1] [1] 1 0
s 0.543593396 _1_ MAC  --- 0 ACK 38 [0 0 0 0] 
r 0.543608396 _1_ RTR  --- 1 cbr 1020 [13a 1 0 800] ------- [0:2 5:0 30 1] [1] 1 0
D 0.543608396 _1_ RTR LOOP 1 cbr 1020 [13a 1 0 800] ------- [0:2 5:0 29 1] [1] 1 0
D 0.543608396 _1_ RTR  TTL 0 tcp 0 [0 0 0 0] ------- [0:0 0:0 0 0] [0 0] 0 0
r 0.543897868 _0_ MAC  --- 0 ACK 38 [0 0 0 0] 
s 0.544592450 _4_ MAC  --- 0 AODV 106 [0 ffffffff 4 800] ------- [4:255 -1:255 27 0] [0x2 4 1 [5 0] [0 4]] (REQUEST)
r 0.545440784 _3_ MAC  --- 0 AODV 48 [0 ffffffff 4 800] ------- [4:255 -1:255 27 0] [0x2 4 1 [5 0] [0 4]] (REQUEST)
r 0.545440922 _5_ MAC  --- 0 AODV 48 [0 ffffffff 4 800] ------- [4:255 -1:255 27 0] [0x2 4 1 [5 0] [0 4]] (REQUEST)
r 0.545441196 _2_ MAC  --- 0 AODV 48 [0 ffffffff 4 800] ------- [4:255 -1:255 27 0] [0x2 4 1 [5 0] [0 4]] (REQUEST)
r 0.545465784 _3_ RTR  --- 0 AODV 48 [0 ffffffff 4 800] ------- [4:255 -1:255 27 0] [0x2 4 1 [5 0] [0 4]] (REQUEST)
r 0.545465922 _5_ RTR  --- 0 AODV 48 [0 ffffffff 4 800] ------- [4:255 -1:255 27 0] [0x2 4 1 [5 0] [0 4]] (REQUEST)
r 0.545466196 _2_ RTR  --- 0 AODV 48 [0 ffffffff 4 800] ------- [4:255 -1:255 27 0] [0x2 4 1 [5 0] [0 4]] (REQUEST)
s 0.560000000 _0_ AGT  --- 2 cbr 1000 [0 0 0 0] ------- [0:2 5:0 32 0] [2] 0 0
r 0.560000000 _0_ RTR  --- 2 cbr 1000 [0 0 0 0] ------- [0:2 5:0 32 0] [2] 0 0
s 0.560000000 _0_ RTR  --- 2 cbr 1020 [0 0 0 0] ------- [0:2 5:0 30 1] [2] 0 0
s 0.560275000 _0_ MAC  --- 0 RTS 44 [242e 1 0 0] 
r 0.560627471 _1_ MAC  --- 0 RTS 44 [242e 1 0 0] 
s 0.560637471 _1_ MAC  --- 0 CTS 38 [22f4 0 0 0] 
r 0.560941943 _0_ MAC  --- 0 CTS 38 [22f4 0 0 0] 
s 0.560951943 _0_ MAC  --- 2 cbr 1078 [13a 1 0 800] ------- [0:2 5:0 30 1] [2] 0 0
r 0.569576414 _1_ MAC  --- 2 cbr 1020 [13a 1 0 800] ------- [0:2 5:0 30 1] [2] 1 0
s 0.569586414 _1_ MAC  --- 0 ACK 38 [0 0 0 0] 
r 0.569601414 _1_ RTR  --- 2 cbr 1020 [13a 1 0 800] ------- [0:2 5:0 30 1] [2] 1 0
D 0.569601414 _1_ RTR LOOP 2 cbr 1020 [13a 1 0 800] ------- [0:2 5:0 29 1] [2] 1 0
D 0.569601414 _1_ RTR  TTL 0 tcp 0 [0 0 0 0] ------- [0:0 0:0 0 0] [0 0] 0 0
r 0.569890886 _0_ MAC  --- 0 ACK 38 [0 0 0 0] 
s 0.590000000 _0_ AGT  --- 3 cbr 1000 [0 0 0 0] ------- [0:2 5:0 32 0] [3] 0 0
r 0.590000000 _0_ RTR  --- 3 cbr 1000 [0 0 0 0] ------- [0:2 5:0 32 0] [3] 0 0
s 0.590000000 _0_ RTR  --- 3 cbr 1020 [0 0 0 0] ------- [0:2 5:0 30 1] [3] 0 0
s 0.590595000 _0_ MAC  --- 0 RTS 44 [242e 1 0 0] 
r 0.590947471 _1_ MAC  --- 0 RTS 44 [242e 1 0 0] 
s 0.590957471 _1_ MAC  --- 0 CTS 38 [22f4 0 0 0] 
r 0.591261943 _0_ MAC  --- 0 CTS 38 [22f4 0 0 0] 
s 0.591271943 _0_ MAC  --- 3 cbr 1078 [13a 1 0 800] ------- [0:2 5:0 30 1] [3] 0 0
r 0.599896414 _1_ MAC  --- 3 cbr 1020 [13a 1 0 800] ------- [0:2 5:0 30 1] [3] 1 0
s 0.599906414 _1_ MAC  --- 0 ACK 38 [0 0 0 0] 
r 0.599921414 _1_ RTR  --- 3 cbr 1020 [13a 1 0 800] ------- [0:2 5:0 30 1] [3] 1 0
D 0.599921414 _1_ RTR LOOP 3 cbr 1020 [13a 1 0 800] ------- [0:2 5:0 29 1] [3] 1 0
D 0.599921414 _1_ RTR  TTL 0 tcp 0 [0 0 0 0] ------- [0:0 0:0 0 0] [0 0] 0 0
r 0.600210886 _0_ MAC  --- 0 ACK 38 [0 0 0 0] 
s 0.620000000 _0_ AGT  --- 4 cbr 1000 [0 0 0 0] ------- [0:2 5:0 32 0] [4] 0 0
r 0.620000000 _0_ RTR  --- 4 cbr 1000 [0 0 0 0] ------- [0:2 5:0 32 0] [4] 0 0
s 0.620000000 _0_ RTR  --- 4 cbr 1020 [0 0 0 0] ------- [0:2 5:0 30 1] [4] 0 0
s 0.620275000 _0_ MAC  --- 0 RTS 44 [242e 1 0 0] 
r 0.620627471 _1_ MAC  --- 0 RTS 44 [242e 1 0 0] 
s 0.620637471 _1_ MAC  --- 0 CTS 38 [22f4 0 0 0] 
r 0.620941943 _0_ MAC  --- 0 CTS 38 [22f4 0 0 0] 
s 0.620951943 _0_ MAC  --- 4 cbr 1078 [13a 1 0 800] ------- [0:2 5:0 30 1] [4] 0 0
r 0.629576414 _1_ MAC  --- 4 cbr 1020 [13a 1 0 800] ------- [0:2 5:0 30 1] [4] 1 0
s 0.629586414 _1_ MAC  --- 0 ACK 38 [0 0 0 0] 
r 0.629601414 _1_ RTR  --- 4 cbr 1020 [13a 1 0 800] ------- [0:2 5:0 30 1] [4] 1 0
D 0.629601414 _1_ RTR LOOP 4 cbr 1020 [13a 1 0 800] ------- [0:2 5:0 29 1] [4] 1 0
D 0.629601414 _1_ RTR  TTL 0 tcp 0 [0 0 0 0] ------- [0:0 0:0 0 0] [0 0] 0 0
r 0.629890886 _0_ MAC  --- 0 ACK 38 [0 0 0 0] 
s 0.650000000 _0_ AGT  --- 5 cbr 1000 [0 0 0 0] ------- [0:2 5:0 32 0] [5] 0 0
r 0.650000000 _0_ RTR  --- 5 cbr 1000 [0 0 0 0] ------- [0:2 5:0 32 0] [5] 0 0
s 0.650000000 _0_ RTR  --- 5 cbr 1020 [0 0 0 0] ------- [0:2 5:0 30 1] [5] 0 0
s 0.650135000 _0_ MAC  --- 0 RTS 44 [242e 1 0 0] 
r 0.650487471 _1_ MAC  --- 0 RTS 44 [242e 1 0 0] 
s 0.650497471 _1_ MAC  --- 0 CTS 38 [22f4 0 0 0] 
r 0.650801943 _0_ MAC  --- 0 CTS 38 [22f4 0 0 0] 
s 0.650811943 _0_ MAC  --- 5 cbr 1078 [13a 1 0 800] ------- [0:2 5:0 30 1] [5] 0 0
r 0.659436414 _1_ MAC  --- 5 cbr 1020 [13a 1 0 800] ------- [0:2 5:0 30 1] [5] 1 0
s 0.659446414 _1_ MAC  --- 0 ACK 38 [0 0 0 0] 
r 0.659461414 _1_ RTR  --- 5 cbr 1020 [13a 1 0 800] ------- [0:2 5:0 30 1] [5] 1 0
D 0.659461414 _1_ RTR LOOP 5 cbr 1020 [13a 1 0 800] ------- [0:2 5:0 29 1] [5] 1 0
D 0.659461414 _1_ RTR  TTL 0 tcp 0 [0 0 0 0] ------- [0:0 0:0 0 0] [0 0] 0 0
r 0.659750886 _0_ MAC  --- 0 ACK 38 [0 0 0 0] 
s 0.680000000 _0_ AGT  --- 6 cbr 1000 [0 0 0 0] ------- [0:2 5:0 32 0] [6] 0 0
r 0.680000000 _0_ RTR  --- 6 cbr 1000 [0 0 0 0] ------- [0:2 5:0 32 0] [6] 0 0
s 0.680000000 _0_ RTR  --- 6 cbr 1020 [0 0 0 0] ------- [0:2 5:0 30 1] [6] 0 0
s 0.680415000 _0_ MAC  --- 0 RTS 44 [242e 1 0 0] 
r 0.680767471 _1_ MAC  --- 0 RTS 44 [242e 1 0 0] 
s 0.680777471 _1_ MAC  --- 0 CTS 38 [22f4 0 0 0] 
r 0.681081943 _0_ MAC  --- 0 CTS 38 [22f4 0 0 0] 
s 0.681091943 _0_ MAC  --- 6 cbr 1078 [13a 1 0 800] ------- [0:2 5:0 30 1] [6] 0 0
r 0.689716414 _1_ MAC  --- 6 cbr 1020 [13a 1 0 800] ------- [0:2 5:0 30 1] [6] 1 0
s 0.689726414 _1_ MAC  --- 0 ACK 38 [0 0 0 0] 
r 0.689741414 _1_ RTR  --- 6 cbr 1020 [13a 1 0 800] ------- [0:2 5:0 30 1] [6] 1 0
D 0.689741414 _1_ RTR LOOP 6 cbr 1020 [13a 1 0 800] ------- [0:2 5:0 29 1] [6] 1 0
D 0.689741414 _1_ RTR  TTL 0 tcp 0 [0 0 0 0] ------- [0:0 0:0 0 0] [0 0] 0 0
r 0.690030886 _0_ MAC  --- 0 ACK 38 [0 0 0 0] 
s 0.710000000 _0_ AGT  --- 7 cbr 1000 [0 0 0 0] ------- [0:2 5:0 32 0] [7] 0 0
r 0.710000000 _0_ RTR  --- 7 cbr 1000 [0 0 0 0] ------- [0:2 5:0 32 0] [7] 0 0
s 0.710000000 _0_ RTR  --- 7 cbr 1020 [0 0 0 0] ------- [0:2 5:0 30 1] [7] 0 0
s 0.710355000 _0_ MAC  --- 0 RTS 44 [242e 1 0 0] 
r 0.710707471 _1_ MAC  --- 0 RTS 44 [242e 1 0 0] 
s 0.710717471 _1_ MAC  --- 0 CTS 38 [22f4 0 0 0] 
r 0.711021943 _0_ MAC  --- 0 CTS 38 [22f4 0 0 0] 
s 0.711031943 _0_ MAC  --- 7 cbr 1078 [13a 1 0 800] ------- [0:2 5:0 30 1] [7] 0 0
r 0.719656414 _1_ MAC  --- 7 cbr 1020 [13a 1 0 800] ------- [0:2 5:0 30 1] [7] 1 0
s 0.719666414 _1_ MAC  --- 0 ACK 38 [0 0 0 0] 
r 0.719681414 _1_ RTR  --- 7 cbr 1020 [13a 1 0 800] ------- [0:2 5:0 30 1] [7] 1 0
D 0.719681414 _1_ RTR LOOP 7 cbr 1020 [13a 1 0 800] ------- [0:2 5:0 29 1] [7] 1 0
D 0.719681414 _1_ RTR  TTL 0 tcp 0 [0 0 0 0] ------- [0:0 0:0 0 0] [0 0] 0 0
r 0.719970886 _0_ MAC  --- 0 ACK 38 [0 0 0 0] 
s 0.740000000 _0_ AGT  --- 8 cbr 1000 [0 0 0 0] ------- [0:2 5:0 32 0] [8] 0 0
r 0.740000000 _0_ RTR  --- 8 cbr 1000 [0 0 0 0] ------- [0:2 5:0 32 0] [8] 0 0
s 0.740000000 _0_ RTR  --- 8 cbr 1020 [0 0 0 0] ------- [0:2 5:0 30 1] [8] 0 0
s 0.740355000 _0_ MAC  --- 0 RTS 44 [242e 1 0 0] 
r 0.740707471 _1_ MAC  --- 0 RTS 44 [242e 1 0 0] 
s 0.740717471 _1_ MAC  --- 0 CTS 38 [22f4 0 0 0] 
r 0.741021943 _0_ MAC  --- 0 CTS 38 [22f4 0 0 0] 
s 0.741031943 _0_ MAC  --- 8 cbr 1078 [13a 1 0 800] ------- [0:2 5:0 30 1] [8] 0 0
r 0.749656414 _1_ MAC  --- 8 cbr 1020 [13a 1 0 800] ------- [0:2 5:0 30 1] [8] 1 0
s 0.749666414 _1_ MAC  --- 0 ACK 38 [0 0 0 0] 
r 0.749681414 _1_ RTR  --- 8 cbr 1020 [13a 1 0 800] ------- [0:2 5:0 30 1] [8] 1 0
D 0.749681414 _1_ RTR LOOP 8 cbr 1020 [13a 1 0 800] ------- [0:2 5:0 29 1] [8] 1 0
D 0.749681414 _1_ RTR  TTL 0 tcp 0 [0 0 0 0] ------- [0:0 0:0 0 0] [0 0] 0 0
r 0.749970886 _0_ MAC  --- 0 ACK 38 [0 0 0 0] 
s 0.770000000 _0_ AGT  --- 9 cbr 1000 [0 0 0 0] ------- [0:2 5:0 32 0] [9] 0 0
r 0.770000000 _0_ RTR  --- 9 cbr 1000 [0 0 0 0] ------- [0:2 5:0 32 0] [9] 0 0
s 0.770000000 _0_ RTR  --- 9 cbr 1020 [0 0 0 0] ------- [0:2 5:0 30 1] [9] 0 0
s 0.770075000 _0_ MAC  --- 0 RTS 44 [242e 1 0 0] 
r 0.770427471 _1_ MAC  --- 0 RTS 44 [242e 1 0 0] 
s 0.770437471 _1_ MAC  --- 0 CTS 38 [22f4 0 0 0] 
r 0.770741943 _0_ MAC  --- 0 CTS 38 [22f4 0 0 0] 
s 0.770751943 _0_ MAC  --- 9 cbr 1078 [13a 1 0 800] ------- [0:2 5:0 30 1] [9] 0 0
r 0.779376414 _1_ MAC  --- 9 cbr 1020 [13a 1 0 800] ------- [0:2 5:0 30 1] [9] 1 0
s 0.779386414 _1_ MAC  --- 0 ACK 38 [0 0 0 0] 
r 0.779401414 _1_ RTR  --- 9 cbr 1020 [13a 1 0 800] ------- [0:2 5:0 30 1] [9] 1 0
D 0.779401414 _1_ RTR LOOP 9 cbr 1020 [13a 1 0 800] ------- [0:2 5:0 29 1] [9] 1 0
D 0.779401414 _1_ RTR  TTL 0 tcp 0 [0 0 0 0] ------- [0:0 0:0 0 0] [0 0] 0 0
r 0.779690886 _0_ MAC  --- 0 ACK 38 [0 0 0 0] 
s 0.800000000 _0_ AGT  --- 10 cbr 1000 [0 0 0 0] ------- [0:2 5:0 32 0] [10] 0 0
r 0.800000000 _0_ RTR  --- 10 cbr 1000 [0 0 0 0] ------- [0:2 5:0 32 0] [10] 0 0
s 0.800000000 _0_ RTR  --- 10 cbr 1020 [0 0 0 0] ------- [0:2 5:0 30 1] [10] 0 0
s 0.800395000 _0_ MAC  --- 0 RTS 44 [242e 1 0 0] 
r 0.800747471 _1_ MAC  --- 0 RTS 44 [242e 1 0 0] 
s 0.800757471 _1_ MAC  --- 0 CTS 38 [22f4 0 0 0] 
r 0.801061943 _0_ MAC  --- 0 CTS 38 [22f4 0 0 0] 
s 0.801071943 _0_ MAC  --- 10 cbr 1078 [13a 1 0 800] ------- [0:2 5:0 30 1] [10] 0 0
r 0.809696414 _1_ MAC  --- 10 cbr 1020 [13a 1 0 800] ------- [0:2 5:0 30 1] [10] 1 0
s 0.809706414 _1_ MAC  --- 0 ACK 38 [0 0 0 0] 
r 0.809721414 _1_ RTR  --- 10 cbr 1020 [13a 1 0 800] ------- [0:2 5:0 30 1] [10] 1 0
D 0.809721414 _1_ RTR LOOP 10 cbr 1020 [13a 1 0 800] ------- [0:2 5:0 29 1] [10] 1 0
D 0.809721414 _1_ RTR  TTL 0 tcp 0 [0 0 0 0] ------- [0:0 0:0 0 0] [0 0] 0 0
r 0.810010886 _0_ MAC  --- 0 ACK 38 [0 0 0 0] 
s 0.830000000 _0_ AGT  --- 11 cbr 1000 [0 0 0 0] ------- [0:2 5:0 32 0] [11] 0 0
r 0.830000000 _0_ RTR  --- 11 cbr 1000 [0 0 0 0] ------- [0:2 5:0 32 0] [11] 0 0
s 0.830000000 _0_ RTR  --- 11 cbr 1020 [0 0 0 0] ------- [0:2 5:0 30 1] [11] 0 0
s 0.830295000 _0_ MAC  --- 0 RTS 44 [242e 1 0 0] 
r 0.830647471 _1_ MAC  --- 0 RTS 44 [242e 1 0 0] 
s 0.830657471 _1_ MAC  --- 0 CTS 38 [22f4 0 0 0] 
r 0.830961943 _0_ MAC  --- 0 CTS 38 [22f4 0 0 0] 
s 0.830971943 _0_ MAC  --- 11 cbr 1078 [13a 1 0 800] ------- [0:2 5:0 30 1] [11] 0 0
r 0.839596414 _1_ MAC  --- 11 cbr 1020 [13a 1 0 800] ------- [0:2 5:0 30 1] [11] 1 0
s 0.839606414 _1_ MAC  --- 0 ACK 38 [0 0 0 0] 
r 0.839621414 _1_ RTR  --- 11 cbr 1020 [13a 1 0 800] ------- [0:2 5:0 30 1] [11] 1 0
D 0.839621414 _1_ RTR LOOP 11 cbr 1020 [13a 1 0 800] ------- [0:2 5:0 29 1] [11] 1 0
D 0.839621414 _1_ RTR  TTL 0 tcp 0 [0 0 0 0] ------- [0:0 0:0 0 0] [0 0] 0 0
r 0.839910886 _0_ MAC  --- 0 ACK 38 [0 0 0 0] 
s 0.860000000 _0_ AGT  --- 12 cbr 1000 [0 0 0 0] ------- [0:2 5:0 32 0] [12] 0 0
r 0.860000000 _0_ RTR  --- 12 cbr 1000 [0 0 0 0] ------- [0:2 5:0 32 0] [12] 0 0
s 0.860000000 _0_ RTR  --- 12 cbr 1020 [0 0 0 0] ------- [0:2 5:0 30 1] [12] 0 0
s 0.860375000 _0_ MAC  --- 0 RTS 44 [242e 1 0 0] 
r 0.860727471 _1_ MAC  --- 0 RTS 44 [242e 1 0 0] 
s 0.860737471 _1_ MAC  --- 0 CTS 38 [22f4 0 0 0] 
r 0.861041943 _0_ MAC  --- 0 CTS 38 [22f4 0 0 0] 
s 0.861051943 _0_ MAC  --- 12 cbr 1078 [13a 1 0 800] ------- [0:2 5:0 30 1] [12] 0 0
r 0.869676414 _1_ MAC  --- 12 cbr 1020 [13a 1 0 800] ------- [0:2 5:0 30 1] [12] 1 0
s 0.869686414 _1_ MAC  --- 0 ACK 38 [0 0 0 0] 
r 0.869701414 _1_ RTR  --- 12 cbr 1020 [13a 1 0 800] ------- [0:2 5:0 30 1] [12] 1 0
D 0.869701414 _1_ RTR LOOP 12 cbr 1020 [13a 1 0 800] ------- [0:2 5:0 29 1] [12] 1 0
D 0.869701414 _1_ RTR  TTL 0 tcp 0 [0 0 0 0] ------- [0:0 0:0 0 0] [0 0] 0 0
r 0.869990886 _0_ MAC  --- 0 ACK 38 [0 0 0 0] 
s 0.890000000 _0_ AGT  --- 13 cbr 1000 [0 0 0 0] ------- [0:2 5:0 32 0] [13] 0 0
r 0.890000000 _0_ RTR  --- 13 cbr 1000 [0 0 0 0] ------- [0:2 5:0 32 0] [13] 0 0
s 0.890000000 _0_ RTR  --- 13 cbr 1020 [0 0 0 0] ------- [0:2 5:0 30 1] [13] 0 0
s 0.890315000 _0_ MAC  --- 0 RTS 44 [242e 1 0 0] 
r 0.890667471 _1_ MAC  --- 0 RTS 44 [242e 1 0 0] 
s 0.890677471 _1_ MAC  --- 0 CTS 38 [22f4 0 0 0] 
r 0.890981943 _0_ MAC  --- 0 CTS 38 [22f4 0 0 0] 
s 0.890991943 _0_ MAC  --- 13 cbr 1078 [13a 1 0 800] ------- [0:2 5:0 30 1] [13] 0 0
r 0.899616414 _1_ MAC  --- 13 cbr 1020 [13a 1 0 800] ------- [0:2 5:0 30 1] [13] 1 0
s 0.899626414 _1_ MAC  --- 0 ACK 38 [0 0 0 0] 
r 0.899641414 _1_ RTR  --- 13 cbr 1020 [13a 1 0 800] ------- [0:2 5:0 30 1] [13] 1 0
D 0.899641414 _1_ RTR LOOP 13 cbr 1020 [13a 1 0 800] ------- [0:2 5:0 29 1] [13] 1 0
D 0.899641414 _1_ RTR  TTL 0 tcp 0 [0 0 0 0] ------- [0:0 0:0 0 0] [0 0] 0 0
r 0.899930886 _0_ MAC  --- 0 ACK 38 [0 0 0 0] 
s 0.920000000 _0_ AGT  --- 14 cbr 1000 [0 0 0 0] ------- [0:2 5:0 32 0] [14] 0 0
r 0.920000000 _0_ RTR  --- 14 cbr 1000 [0 0 0 0] ------- [0:2 5:0 32 0] [14] 0 0
s 0.920000000 _0_ RTR  --- 14 cbr 1020 [0 0 0 0] ------- [0:2 5:0 30 1] [14] 0 0
s 0.920355000 _0_ MAC  --- 0 RTS 44 [242e 1 0 0] 
r 0.920707471 _1_ MAC  --- 0 RTS 44 [242e 1 0 0] 
s 0.920717471 _1_ MAC  --- 0 CTS 38 [22f4 0 0 0] 
r 0.921021943 _0_ MAC  --- 0 CTS 38 [22f4 0 0 0] 
s 0.921031943 _0_ MAC  --- 14 cbr 1078 [13a 1 0 800] ------- [0:2 5:0 30 1] [14] 0 0
r 0.929656414 _1_ MAC  --- 14 cbr 1020 [13a 1 0 800] ------- [0:2 5:0 30 1] [14] 1 0
s 0.929666414 _1_ MAC  --- 0 ACK 38 [0 0 0 0] 
r 0.929681414 _1_ RTR  --- 14 cbr 1020 [13a 1 0 800] ------- [0:2 5:0 30 1] [14] 1 0
D 0.929681414 _1_ RTR LOOP 14 cbr 1020 [13a 1 0 800] ------- [0:2 5:0 29 1] [14] 1 0
D 0.929681414 _1_ RTR  TTL 0 tcp 0 [0 0 0 0] ------- [0:0 0:0 0 0] [0 0] 0 0
r 0.929970886 _0_ MAC  --- 0 ACK 38 [0 0 0 0] 
s 0.950000000 _0_ AGT  --- 15 cbr 1000 [0 0 0 0] ------- [0:2 5:0 32 0] [15] 0 0
r 0.950000000 _0_ RTR  --- 15 cbr 1000 [0 0 0 0] ------- [0:2 5:0 32 0] [15] 0 0
s 0.950000000 _0_ RTR  --- 15 cbr 1020 [0 0 0 0] ------- [0:2 5:0 30 1] [15] 0 0
s 0.950555000 _0_ MAC  --- 0 RTS 44 [242e 1 0 0] 
r 0.950907471 _1_ MAC  --- 0 RTS 44 [242e 1 0 0] 
s 0.950917471 _1_ MAC  --- 0 CTS 38 [22f4 0 0 0] 
r 0.951221943 _0_ MAC  --- 0 CTS 38 [22f4 0 0 0] 
s 0.951231943 _0_ MAC  --- 15 cbr 1078 [13a 1 0 800] ------- [0:2 5:0 30 1] [15] 0 0
r 0.959856414 _1_ MAC  --- 15 cbr 1020 [13a 1 0 800] ------- [0:2 5:0 30 1] [15] 1 0
s 0.959866414 _1_ MAC  --- 0 ACK 38 [0 0 0 0] 
r 0.959881414 _1_ RTR  --- 15 cbr 1020 [13a 1 0 800] ------- [0:2 5:0 30 1] [15] 1 0
D 0.959881414 _1_ RTR LOOP 15 cbr 1020 [13a 1 0 800] ------- [0:2 5:0 29 1] [15] 1 0
D 0.959881414 _1_ RTR  TTL 0 tcp 0 [0 0 0 0] ------- [0:0 0:0 0 0] [0 0] 0 0
r 0.960170886 _0_ MAC  --- 0 ACK 38 [0 0 0 0] 
s 0.980000000 _0_ AGT  --- 16 cbr 1000 [0 0 0 0] ------- [0:2 5:0 32 0] [16] 0 0
r 0.980000000 _0_ RTR  --- 16 cbr 1000 [0 0 0 0] ------- [0:2 5:0 32 0] [16] 0 0
s 0.980000000 _0_ RTR  --- 16 cbr 1020 [0 0 0 0] ------- [0:2 5:0 30 1] [16] 0 0
s 0.980195000 _0_ MAC  --- 0 RTS 44 [242e 1 0 0] 
r 0.980547471 _1_ MAC  --- 0 RTS 44 [242e 1 0 0] 
s 0.980557471 _1_ MAC  --- 0 CTS 38 [22f4 0 0 0] 
r 0.980861943 _0_ MAC  --- 0 CTS 38 [22f4 0 0 0] 
s 0.980871943 _0_ MAC  --- 16 cbr 1078 [13a 1 0 800] ------- [0:2 5:0 30 1] [16] 0 0
r 0.989496414 _1_ MAC  --- 16 cbr 1020 [13a 1 0 800] ------- [0:2 5:0 30 1] [16] 1 0
s 0.989506414 _1_ MAC  --- 0 ACK 38 [0 0 0 0] 
r 0.989521414 _1_ RTR  --- 16 cbr 1020 [13a 1 0 800] ------- [0:2 5:0 30 1] [16] 1 0
D 0.989521414 _1_ RTR LOOP 16 cbr 1020 [13a 1 0 800] ------- [0:2 5:0 29 1] [16] 1 0
D 0.989521414 _1_ RTR  TTL 0 tcp 0 [0 0 0 0] ------- [0:0 0:0 0 0] [0 0] 0 0
r 0.989810886 _0_ MAC  --- 0 ACK 38 [0 0 0 0] 
s 1.010000000 _0_ AGT  --- 17 cbr 1000 [0 0 0 0] ------- [0:2 5:0 32 0] [17] 0 0
r 1.010000000 _0_ RTR  --- 17 cbr 1000 [0 0 0 0] ------- [0:2 5:0 32 0] [17] 0 0
s 1.010000000 _0_ RTR  --- 17 cbr 1020 [0 0 0 0] ------- [0:2 5:0 30 1] [17] 0 0
s 1.010115000 _0_ MAC  --- 0 RTS 44 [242e 1 0 0] 
r 1.010467471 _1_ MAC  --- 0 RTS 44 [242e 1 0 0] 
s 1.010477471 _1_ MAC  --- 0 CTS 38 [22f4 0 0 0] 
r 1.010781943 _0_ MAC  --- 0 CTS 38 [22f4 0 0 0] 
s 1.010791943 _0_ MAC  --- 17 cbr 1078 [13a 1 0 800] ------- [0:2 5:0 30 1] [17] 0 0
r 1.019416414 _1_ MAC  --- 17 cbr 1020 [13a 1 0 800] ------- [0:2 5:0 30 1] [17] 1 0
s 1.019426414 _1_ MAC  --- 0 ACK 38 [0 0 0 0] 
r 1.019441414 _1_ RTR  --- 17 cbr 1020 [13a 1 0 800] ------- [0:2 5:0 30 1] [17] 1 0
D 1.019441414 _1_ RTR LOOP 17 cbr 1020 [13a 1 0 800] ------- [0:2 5:0 29 1] [17] 1 0
D 1.019441414 _1_ RTR  TTL 0 tcp 0 [0 0 0 0] ------- [0:0 0:0 0 0] [0 0] 0 0
r 1.019730886 _0_ MAC  --- 0 ACK 38 [0 0 0 0] 
s 1.040000000 _0_ AGT  --- 18 cbr 1000 [0 0 0 0] ------- [0:2 5:0 32 0] [18] 0 0
r 1.040000000 _0_ RTR  --- 18 cbr 1000 [0 0 0 0] ------- [0:2 5:0 32 0] [18] 0 0
s 1.040000000 _0_ RTR  --- 18 cbr 1020 [0 0 0 0] ------- [0:2 5:0 30 1] [18] 0 0
s 1.040195000 _0_ MAC  --- 0 RTS 44 [242e 1 0 0] 
r 1.040547471 _1_ MAC  --- 0 RTS 44 [242e 1 0 0] 
s 1.040557471 _1_ MAC  --- 0 CTS 38 [22f4 0 0 0] 
r 1.040861943 _0_ MAC  --- 0 CTS 38 [22f4 0 0 0] 
s 1.040871943 _0_ MAC  --- 18 cbr 1078 [13a 1 0 800] ------- [0:2 5:0 30 1] [18] 0 0
r 1.049496414 _1_ MAC  --- 18 cbr 1020 [13a 1 0 800] ------- [0:2 5:0 30 1] [18] 1 0
s 1.049506414 _1_ MAC  --- 0 ACK 38 [0 0 0 0] 
r 1.049521414 _1_ RTR  --- 18 cbr 1020 [13a 1 0 800] ------- [0:2 5:0 30 1] [18] 1 0
D 1.049521414 _1_ RTR LOOP 18 cbr 1020 [13a 1 0 800] ------- [0:2 5:0 29 1] [18] 1 0
D 1.049521414 _1_ RTR  TTL 0 tcp 0 [0 0 0 0] ------- [0:0 0:0 0 0] [0 0] 0 0
r 1.049810886 _0_ MAC  --- 0 ACK 38 [0 0 0 0] 
s 1.070000000 _0_ AGT  --- 19 cbr 1000 [0 0 0 0] ------- [0:2 5:0 32 0] [19] 0 0
r 1.070000000 _0_ RTR  --- 19 cbr 1000 [0 0 0 0] ------- [0:2 5:0 32 0] [19] 0 0
s 1.070000000 _0_ RTR  --- 19 cbr 1020 [0 0 0 0] ------- [0:2 5:0 30 1] [19] 0 0
s 1.070175000 _0_ MAC  --- 0 RTS 44 [242e 1 0 0] 
r 1.070527471 _1_ MAC  --- 0 RTS 44 [242e 1 0 0] 
s 1.070537471 _1_ MAC  --- 0 CTS 38 [22f4 0 0 0] 
r 1.070841943 _0_ MAC  --- 0 CTS 38 [22f4 0 0 0] 
s 1.070851943 _0_ MAC  --- 19 cbr 1078 [13a 1 0 800] ------- [0:2 5:0 30 1] [19] 0 0
r 1.079476414 _1_ MAC  --- 19 cbr 1020 [13a 1 0 800] ------- [0:2 5:0 30 1] [19] 1 0
s 1.079486414 _1_ MAC  --- 0 ACK 38 [0 0 0 0] 
r 1.079501414 _1_ RTR  --- 19 cbr 1020 [13a 1 0 800] ------- [0:2 5:0 30 1] [19] 1 0
D 1.079501414 _1_ RTR LOOP 19 cbr 1020 [13a 1 0 800] ------- [0:2 5:0 29 1] [19] 1 0
D 1.079501414 _1_ RTR  TTL 0 tcp 0 [0 0 0 0] ------- [0:0 0:0 0 0] [0 0] 0 0
r 1.079790886 _0_ MAC  --- 0 ACK 38 [0 0 0 0] 
s 1.100000000 _0_ AGT  --- 20 cbr 1000 [0 0 0 0] ------- [0:2 5:0 32 0] [20] 0 0
r 1.100000000 _0_ RTR  --- 20 cbr 1000 [0 0 0 0] ------- [0:2 5:0 32 0] [20] 0 0
s 1.100000000 _0_ RTR  --- 20 cbr 1020 [0 0 0 0] ------- [0:2 5:0 30 1] [20] 0 0
s 1.100335000 _0_ MAC  --- 0 RTS 44 [242e 1 0 0] 
r 1.100687471 _1_ MAC  --- 0 RTS 44 [242e 1 0 0] 
s 1.100697471 _1_ MAC  --- 0 CTS 38 [22f4 0 0 0] 
r 1.101001943 _0_ MAC  --- 0 CTS 38 [22f4 0 0 0] 
s 1.101011943 _0_ MAC  --- 20 cbr 1078 [13a 1 0 800] ------- [0:2 5:0 30 1] [20] 0 0
r 1.109636414 _1_ MAC  --- 20 cbr 1020 [13a 1 0 800] ------- [0:2 5:0 30 1] [20] 1 0
s 1.109646414 _1_ MAC  --- 0 ACK 38 [0 0 0 0] 
r 1.109661414 _1_ RTR  --- 20 cbr 1020 [13a 1 0 800] ------- [0:2 5:0 30 1] [20] 1 0
D 1.109661414 _1_ RTR LOOP 20 cbr 1020 [13a 1 0 800] ------- [0:2 5:0 29 1] [20] 1 0
D 1.109661414 _1_ RTR  TTL 0 tcp 0 [0 0 0 0] ------- [0:0 0:0 0 0] [0 0] 0 0
r 1.109950886 _0_ MAC  --- 0 ACK 38 [0 0 0 0] 
s 1.130000000 _0_ AGT  --- 21 cbr 1000 [0 0 0 0] ------- [0:2 5:0 32 0] [21] 0 0
r 1.130000000 _0_ RTR  --- 21 cbr 1000 [0 0 0 0] ------- [0:2 5:0 32 0] [21] 0 0
s 1.130000000 _0_ RTR  --- 21 cbr 1020 [0 0 0 0] ------- [0:2 5:0 30 1] [21] 0 0
s 1.130135000 _0_ MAC  --- 0 RTS 44 [242e 1 0 0] 
r 1.130487471 _1_ MAC  --- 0 RTS 44 [242e 1 0 0] 
s 1.130497471 _1_ MAC  --- 0 CTS 38 [22f4 0 0 0] 