n -t * -s 0  -x 0 -y 0 -Z 0 -z 30+i*100  -v circle -c black
n -t * -s 1  -x 0 -y 0 -Z 0 -z 30+i*100  -v circle -c black
n -t * -s 2  -x 0 -y 0 -Z 0 -z 30+i*100  -v circle -c black
n -t * -s 3  -x 0 -y 0 -Z 0 -z 30+i*100  -v circle -c black
n -t * -s 4  -x 0 -y 0 -Z 0 -z 30+i*100  -v circle -c black
n -t * -s 5  -x 0 -y 0 -Z 0 -z 30+i*100  -v circle -c black
V -t * -v 1.0a5 -a 0
W -t * -x 800 -y 800
A -t * -n 1 -p 0 -o 0x7fffffff -c 30 -a 1
A -t * -h 1 -m 1073741823 -s 0
c -t * -i 4 -n brown
c -t * -i 0 -n blue
c -t * -i 5 -n tan
c -t * -i 1 -n red
c -t * -i 6 -n gold
c -t * -i 2 -n chocolate
c -t * -i 7 -n black
c -t * -i 3 -n red
n -t 0 -s 0 -S COLOR -c blue -o 0 -i blue -I 0
n -t 0 -s 1 -S COLOR -c red -o blue -i red -I blue
n -t 0 -s 5 -S COLOR -c blue -o red -i blue -I red
n -t 0.000000 -s 0 -x 0.000000 -y 0.000000 -U 2121.320344 -V 2121.320344 -T 0.047140
n -t 0.000000 -s 1 -x 0.000000 -y 0.000000 -U 2121.320344 -V 2121.320344 -T 0.094281
n -t 0.000000 -s 2 -x 0.000000 -y 0.000000 -U 2121.320344 -V 2121.320344 -T 0.141421
n -t 0.000000 -s 3 -x 0.000000 -y 0.000000 -U 2400.000000 -V 1800.000000 -T 0.166667
n -t 0.000000 -s 4 -x 0.000000 -y 0.000000 -U 2572.478777 -V 1543.487266 -T 0.194365
n -t 0.000000 -s 5 -x 0.000000 -y 0.000000 -U 2496.150883 -V 1664.100589 -T 0.240370
+ -t 0.500000000 -s 0 -d -1 -p cbr -e 1000 -c 2 -a 0 -i 0 -k AGT 
- -t 0.500000000 -s 0 -d -1 -p cbr -e 1000 -c 2 -a 0 -i 0 -k AGT
h -t 0.500000000 -s 0 -d -1 -p cbr -e 1000 -c 2 -a 0 -i 0 -k AGT
+ -t 0.500000000 -s 0 -d -1 -p AODV -e 48 -c 2 -a 0 -i 0 -k RTR 
- -t 0.500000000 -s 0 -d -1 -p AODV -e 48 -c 2 -a 0 -i 0 -k RTR
h -t 0.500000000 -s 0 -d -1 -p AODV -e 48 -c 2 -a 0 -i 0 -k RTR
+ -t 0.500235000 -s 0 -d -1 -p AODV -e 106 -c 2 -a 0 -i 0 -k MAC 
- -t 0.500235000 -s 0 -d -1 -p AODV -e 106 -c 2 -a 0 -i 0 -k MAC
h -t 0.500235000 -s 0 -d -1 -p AODV -e 106 -c 2 -a 0 -i 0 -k MAC
r -t 0.501083471 -s 1 -d -1 -p AODV -e 48 -c 2 -a 0 -i 0 -k MAC
r -t 0.501108471 -s 1 -d -1 -p AODV -e 48 -c 2 -a 0 -i 0 -k RTR
+ -t 0.503454489 -s 1 -d -1 -p AODV -e 48 -c 2 -a 0 -i 0 -k RTR 
- -t 0.503454489 -s 1 -d -1 -p AODV -e 48 -c 2 -a 0 -i 0 -k RTR
h -t 0.503454489 -s 1 -d -1 -p AODV -e 48 -c 2 -a 0 -i 0 -k RTR
+ -t 0.503889489 -s 1 -d -1 -p AODV -e 106 -c 2 -a 0 -i 0 -k MAC 
- -t 0.503889489 -s 1 -d -1 -p AODV -e 106 -c 2 -a 0 -i 0 -k MAC
h -t 0.503889489 -s 1 -d -1 -p AODV -e 106 -c 2 -a 0 -i 0 -k MAC
r -t 0.504737960 -s 0 -d -1 -p AODV -e 48 -c 2 -a 0 -i 0 -k MAC
r -t 0.504737960 -s 2 -d -1 -p AODV -e 48 -c 2 -a 0 -i 0 -k MAC
r -t 0.504738234 -s 3 -d -1 -p AODV -e 48 -c 2 -a 0 -i 0 -k MAC
r -t 0.504762960 -s 0 -d -1 -p AODV -e 48 -c 2 -a 0 -i 0 -k RTR
r -t 0.504762960 -s 2 -d -1 -p AODV -e 48 -c 2 -a 0 -i 0 -k RTR
r -t 0.504763234 -s 3 -d -1 -p AODV -e 48 -c 2 -a 0 -i 0 -k RTR
+ -t 0.506404688 -s 3 -d -1 -p AODV -e 48 -c 2 -a 0 -i 0 -k RTR 
- -t 0.506404688 -s 3 -d -1 -p AODV -e 48 -c 2 -a 0 -i 0 -k RTR
h -t 0.506404688 -s 3 -d -1 -p AODV -e 48 -c 2 -a 0 -i 0 -k RTR
+ -t 0.507019688 -s 3 -d -1 -p AODV -e 106 -c 2 -a 0 -i 0 -k MAC 
- -t 0.507019688 -s 3 -d -1 -p AODV -e 106 -c 2 -a 0 -i 0 -k MAC
h -t 0.507019688 -s 3 -d -1 -p AODV -e 106 -c 2 -a 0 -i 0 -k MAC
r -t 0.507868022 -s 2 -d -1 -p AODV -e 48 -c 2 -a 0 -i 0 -k MAC
r -t 0.507868022 -s 4 -d -1 -p AODV -e 48 -c 2 -a 0 -i 0 -k MAC
r -t 0.507868434 -s 1 -d -1 -p AODV -e 48 -c 2 -a 0 -i 0 -k MAC
r -t 0.507868434 -s 5 -d -1 -p AODV -e 48 -c 2 -a 0 -i 0 -k MAC
r -t 0.507893022 -s 2 -d -1 -p AODV -e 48 -c 2 -a 0 -i 0 -k RTR
r -t 0.507893022 -s 4 -d -1 -p AODV -e 48 -c 2 -a 0 -i 0 -k RTR
r -t 0.507893434 -s 1 -d -1 -p AODV -e 48 -c 2 -a 0 -i 0 -k RTR
r -t 0.507893434 -s 5 -d -1 -p AODV -e 48 -c 2 -a 0 -i 0 -k RTR
+ -t 0.507893434 -s 5 -d 3 -p AODV -e 44 -c 2 -a 0 -i 0 -k RTR 
- -t 0.507893434 -s 5 -d 3 -p AODV -e 44 -c 2 -a 0 -i 0 -k RTR
h -t 0.507893434 -s 5 -d 3 -p AODV -e 44 -c 2 -a 0 -i 0 -k RTR
+ -t 0.508188434 -s 5 -d -1 -p ARP -e 86 -c 2 -a 0 -i 0 -k MAC 
- -t 0.508188434 -s 5 -d -1 -p ARP -e 86 -c 2 -a 0 -i 0 -k MAC
h -t 0.508188434 -s 5 -d -1 -p ARP -e 86 -c 2 -a 0 -i 0 -k MAC
r -t 0.508876905 -s 4 -d -1 -p ARP -e 28 -c 2 -a 0 -i 0 -k MAC
r -t 0.508877179 -s 3 -d -1 -p ARP -e 28 -c 2 -a 0 -i 0 -k MAC
+ -t 0.509031104 -s 4 -d -1 -p AODV -e 48 -c 2 -a 0 -i 0 -k RTR 
- -t 0.509031104 -s 4 -d -1 -p AODV -e 48 -c 2 -a 0 -i 0 -k RTR
h -t 0.509031104 -s 4 -d -1 -p AODV -e 48 -c 2 -a 0 -i 0 -k RTR
+ -t 0.509412179 -s 3 -d -1 -p RTS -e 44 -c 2 -a 0 -i 0 -k MAC 
- -t 0.509412179 -s 3 -d -1 -p RTS -e 44 -c 2 -a 0 -i 0 -k MAC
h -t 0.509412179 -s 3 -d -1 -p RTS -e 44 -c 2 -a 0 -i 0 -k MAC
r -t 0.509764924 -s 5 -d -1 -p RTS -e 44 -c 2 -a 0 -i 0 -k MAC
+ -t 0.509774924 -s 5 -d -1 -p CTS -e 38 -c 2 -a 0 -i 0 -k MAC 
- -t 0.509774924 -s 5 -d -1 -p CTS -e 38 -c 2 -a 0 -i 0 -k MAC
h -t 0.509774924 -s 5 -d -1 -p CTS -e 38 -c 2 -a 0 -i 0 -k MAC
r -t 0.510079670 -s 3 -d -1 -p CTS -e 38 -c 2 -a 0 -i 0 -k MAC
+ -t 0.510089670 -s 3 -d -1 -p ARP -e 86 -c 2 -a 0 -i 0 -k MAC 
- -t 0.510089670 -s 3 -d -1 -p ARP -e 86 -c 2 -a 0 -i 0 -k MAC
h -t 0.510089670 -s 3 -d -1 -p ARP -e 86 -c 2 -a 0 -i 0 -k MAC
r -t 0.510778415 -s 5 -d -1 -p ARP -e 28 -c 2 -a 0 -i 0 -k MAC
+ -t 0.510788415 -s 5 -d -1 -p ACK -e 38 -c 2 -a 0 -i 0 -k MAC 
- -t 0.510788415 -s 5 -d -1 -p ACK -e 38 -c 2 -a 0 -i 0 -k MAC
h -t 0.510788415 -s 5 -d -1 -p ACK -e 38 -c 2 -a 0 -i 0 -k MAC
r -t 0.511093160 -s 3 -d -1 -p ACK -e 38 -c 2 -a 0 -i 0 -k MAC
+ -t 0.511182887 -s 4 -d -1 -p AODV -e 106 -c 2 -a 0 -i 0 -k MAC 
- -t 0.511182887 -s 4 -d -1 -p AODV -e 106 -c 2 -a 0 -i 0 -k MAC
h -t 0.511182887 -s 4 -d -1 -p AODV -e 106 -c 2 -a 0 -i 0 -k MAC
r -t 0.512031220 -s 3 -d -1 -p AODV -e 48 -c 2 -a 0 -i 0 -k MAC
r -t 0.512031358 -s 5 -d -1 -p AODV -e 48 -c 2 -a 0 -i 0 -k MAC
r -t 0.512031553 -s 2 -d -1 -p AODV -e 48 -c 2 -a 0 -i 0 -k MAC
r -t 0.512056220 -s 3 -d -1 -p AODV -e 48 -c 2 -a 0 -i 0 -k RTR
r -t 0.512056358 -s 5 -d -1 -p AODV -e 48 -c 2 -a 0 -i 0 -k RTR
r -t 0.512056553 -s 2 -d -1 -p AODV -e 48 -c 2 -a 0 -i 0 -k RTR
+ -t 0.512361358 -s 5 -d -1 -p RTS -e 44 -c 2 -a 0 -i 0 -k MAC 
- -t 0.512361358 -s 5 -d -1 -p RTS -e 44 -c 2 -a 0 -i 0 -k MAC
h -t 0.512361358 -s 5 -d -1 -p RTS -e 44 -c 2 -a 0 -i 0 -k MAC
r -t 0.512714103 -s 3 -d -1 -p RTS -e 44 -c 2 -a 0 -i 0 -k MAC
+ -t 0.512724103 -s 3 -d -1 -p CTS -e 38 -c 2 -a 0 -i 0 -k MAC 
- -t 0.512724103 -s 3 -d -1 -p CTS -e 38 -c 2 -a 0 -i 0 -k MAC
h -t 0.512724103 -s 3 -d -1 -p CTS -e 38 -c 2 -a 0 -i 0 -k MAC
r -t 0.513028849 -s 5 -d -1 -p CTS -e 38 -c 2 -a 0 -i 0 -k MAC
+ -t 0.513038849 -s 5 -d 3 -p AODV -e 102 -c 2 -a 0 -i 0 -k MAC 
- -t 0.513038849 -s 5 -d 3 -p AODV -e 102 -c 2 -a 0 -i 0 -k MAC
h -t 0.513038849 -s 5 -d 3 -p AODV -e 102 -c 2 -a 0 -i 0 -k MAC
+ -t 0.513126196 -s 2 -d -1 -p AODV -e 48 -c 2 -a 0 -i 0 -k RTR 
- -t 0.513126196 -s 2 -d -1 -p AODV -e 48 -c 2 -a 0 -i 0 -k RTR
h -t 0.513126196 -s 2 -d -1 -p AODV -e 48 -c 2 -a 0 -i 0 -k RTR
r -t 0.513855594 -s 3 -d 3 -p AODV -e 44 -c 2 -a 0 -i 0 -k MAC
+ -t 0.513865594 -s 3 -d -1 -p ACK -e 38 -c 2 -a 0 -i 0 -k MAC 
- -t 0.513865594 -s 3 -d -1 -p ACK -e 38 -c 2 -a 0 -i 0 -k MAC
h -t 0.513865594 -s 3 -d -1 -p ACK -e 38 -c 2 -a 0 -i 0 -k MAC
+ -t 0.513880594 -s 3 -d 1 -p AODV -e 44 -c 2 -a 0 -i 0 -k RTR 
- -t 0.513880594 -s 3 -d 1 -p AODV -e 44 -c 2 -a 0 -i 0 -k RTR
h -t 0.513880594 -s 3 -d 1 -p AODV -e 44 -c 2 -a 0 -i 0 -k RTR
r -t 0.514170339 -s 5 -d -1 -p ACK -e 38 -c 2 -a 0 -i 0 -k MAC
+ -t 0.514289903 -s 2 -d -1 -p AODV -e 106 -c 2 -a 0 -i 0 -k MAC 
- -t 0.514289903 -s 2 -d -1 -p AODV -e 106 -c 2 -a 0 -i 0 -k MAC
h -t 0.514289903 -s 2 -d -1 -p AODV -e 106 -c 2 -a 0 -i 0 -k MAC
r -t 0.515138236 -s 3 -d -1 -p AODV -e 48 -c 2 -a 0 -i 0 -k MAC
r -t 0.515138374 -s 1 -d -1 -p AODV -e 48 -c 2 -a 0 -i 0 -k MAC
r -t 0.515138569 -s 4 -d -1 -p AODV -e 48 -c 2 -a 0 -i 0 -k MAC
r -t 0.515163236 -s 3 -d -1 -p AODV -e 48 -c 2 -a 0 -i 0 -k RTR
r -t 0.515163374 -s 1 -d -1 -p AODV -e 48 -c 2 -a 0 -i 0 -k RTR
r -t 0.515163569 -s 4 -d -1 -p AODV -e 48 -c 2 -a 0 -i 0 -k RTR
+ -t 0.515368236 -s 3 -d -1 -p ARP -e 86 -c 2 -a 0 -i 0 -k MAC 
- -t 0.515368236 -s 3 -d -1 -p ARP -e 86 -c 2 -a 0 -i 0 -k MAC
h -t 0.515368236 -s 3 -d -1 -p ARP -e 86 -c 2 -a 0 -i 0 -k MAC
r -t 0.516056569 -s 2 -d -1 -p ARP -e 28 -c 2 -a 0 -i 0 -k MAC
r -t 0.516056569 -s 4 -d -1 -p ARP -e 28 -c 2 -a 0 -i 0 -k MAC
r -t 0.516056981 -s 1 -d -1 -p ARP -e 28 -c 2 -a 0 -i 0 -k MAC
r -t 0.516056981 -s 5 -d -1 -p ARP -e 28 -c 2 -a 0 -i 0 -k MAC
+ -t 0.516511981 -s 1 -d -1 -p RTS -e 44 -c 2 -a 0 -i 0 -k MAC 
- -t 0.516511981 -s 1 -d -1 -p RTS -e 44 -c 2 -a 0 -i 0 -k MAC
h -t 0.516511981 -s 1 -d -1 -p RTS -e 44 -c 2 -a 0 -i 0 -k MAC
r -t 0.516864727 -s 3 -d -1 -p RTS -e 44 -c 2 -a 0 -i 0 -k MAC
+ -t 0.516874727 -s 3 -d -1 -p CTS -e 38 -c 2 -a 0 -i 0 -k MAC 
- -t 0.516874727 -s 3 -d -1 -p CTS -e 38 -c 2 -a 0 -i 0 -k MAC
h -t 0.516874727 -s 3 -d -1 -p CTS -e 38 -c 2 -a 0 -i 0 -k MAC
r -t 0.517179472 -s 1 -d -1 -p CTS -e 38 -c 2 -a 0 -i 0 -k MAC
+ -t 0.517189472 -s 1 -d -1 -p ARP -e 86 -c 2 -a 0 -i 0 -k MAC 
- -t 0.517189472 -s 1 -d -1 -p ARP -e 86 -c 2 -a 0 -i 0 -k MAC
h -t 0.517189472 -s 1 -d -1 -p ARP -e 86 -c 2 -a 0 -i 0 -k MAC
r -t 0.517878217 -s 3 -d -1 -p ARP -e 28 -c 2 -a 0 -i 0 -k MAC
+ -t 0.517888217 -s 3 -d -1 -p ACK -e 38 -c 2 -a 0 -i 0 -k MAC 
- -t 0.517888217 -s 3 -d -1 -p ACK -e 38 -c 2 -a 0 -i 0 -k MAC
h -t 0.517888217 -s 3 -d -1 -p ACK -e 38 -c 2 -a 0 -i 0 -k MAC
r -t 0.518192963 -s 1 -d -1 -p ACK -e 38 -c 2 -a 0 -i 0 -k MAC
+ -t 0.518422217 -s 3 -d -1 -p RTS -e 44 -c 2 -a 0 -i 0 -k MAC 
- -t 0.518422217 -s 3 -d -1 -p RTS -e 44 -c 2 -a 0 -i 0 -k MAC
h -t 0.518422217 -s 3 -d -1 -p RTS -e 44 -c 2 -a 0 -i 0 -k MAC
r -t 0.518774963 -s 1 -d -1 -p RTS -e 44 -c 2 -a 0 -i 0 -k MAC
+ -t 0.518784963 -s 1 -d -1 -p CTS -e 38 -c 2 -a 0 -i 0 -k MAC 
- -t 0.518784963 -s 1 -d -1 -p CTS -e 38 -c 2 -a 0 -i 0 -k MAC
h -t 0.518784963 -s 1 -d -1 -p CTS -e 38 -c 2 -a 0 -i 0 -k MAC
r -t 0.519089708 -s 3 -d -1 -p CTS -e 38 -c 2 -a 0 -i 0 -k MAC
+ -t 0.519099708 -s 3 -d 1 -p AODV -e 102 -c 2 -a 0 -i 0 -k MAC 
- -t 0.519099708 -s 3 -d 1 -p AODV -e 102 -c 2 -a 0 -i 0 -k MAC
h -t 0.519099708 -s 3 -d 1 -p AODV -e 102 -c 2 -a 0 -i 0 -k MAC
r -t 0.519916454 -s 1 -d 1 -p AODV -e 44 -c 2 -a 0 -i 0 -k MAC
+ -t 0.519926454 -s 1 -d -1 -p ACK -e 38 -c 2 -a 0 -i 0 -k MAC 
- -t 0.519926454 -s 1 -d -1 -p ACK -e 38 -c 2 -a 0 -i 0 -k MAC
h -t 0.519926454 -s 1 -d -1 -p ACK -e 38 -c 2 -a 0 -i 0 -k MAC
+ -t 0.519941454 -s 1 -d 0 -p AODV -e 44 -c 2 -a 0 -i 0 -k RTR 
- -t 0.519941454 -s 1 -d 0 -p AODV -e 44 -c 2 -a 0 -i 0 -k RTR
h -t 0.519941454 -s 1 -d 0 -p AODV -e 44 -c 2 -a 0 -i 0 -k RTR
r -t 0.520231199 -s 3 -d -1 -p ACK -e 38 -c 2 -a 0 -i 0 -k MAC
+ -t 0.520660454 -s 1 -d -1 -p ARP -e 86 -c 2 -a 0 -i 0 -k MAC 
- -t 0.520660454 -s 1 -d -1 -p ARP -e 86 -c 2 -a 0 -i 0 -k MAC
h -t 0.520660454 -s 1 -d -1 -p ARP -e 86 -c 2 -a 0 -i 0 -k MAC
r -t 0.521348925 -s 0 -d -1 -p ARP -e 28 -c 2 -a 0 -i 0 -k MAC
r -t 0.521348925 -s 2 -d -1 -p ARP -e 28 -c 2 -a 0 -i 0 -k MAC
r -t 0.521349199 -s 3 -d -1 -p ARP -e 28 -c 2 -a 0 -i 0 -k MAC
+ -t 0.521703925 -s 0 -d -1 -p RTS -e 44 -c 2 -a 0 -i 0 -k MAC 
- -t 0.521703925 -s 0 -d -1 -p RTS -e 44 -c 2 -a 0 -i 0 -k MAC
h -t 0.521703925 -s 0 -d -1 -p RTS -e 44 -c 2 -a 0 -i 0 -k MAC
r -t 0.522056396 -s 1 -d -1 -p RTS -e 44 -c 2 -a 0 -i 0 -k MAC
+ -t 0.522066396 -s 1 -d -1 -p CTS -e 38 -c 2 -a 0 -i 0 -k MAC 
- -t 0.522066396 -s 1 -d -1 -p CTS -e 38 -c 2 -a 0 -i 0 -k MAC
h -t 0.522066396 -s 1 -d -1 -p CTS -e 38 -c 2 -a 0 -i 0 -k MAC
r -t 0.522370868 -s 0 -d -1 -p CTS -e 38 -c 2 -a 0 -i 0 -k MAC
+ -t 0.522380868 -s 0 -d -1 -p ARP -e 86 -c 2 -a 0 -i 0 -k MAC 
- -t 0.522380868 -s 0 -d -1 -p ARP -e 86 -c 2 -a 0 -i 0 -k MAC
h -t 0.522380868 -s 0 -d -1 -p ARP -e 86 -c 2 -a 0 -i 0 -k MAC
r -t 0.523069339 -s 1 -d -1 -p ARP -e 28 -c 2 -a 0 -i 0 -k MAC
+ -t 0.523079339 -s 1 -d -1 -p ACK -e 38 -c 2 -a 0 -i 0 -k MAC 
- -t 0.523079339 -s 1 -d -1 -p ACK -e 38 -c 2 -a 0 -i 0 -k MAC
h -t 0.523079339 -s 1 -d -1 -p ACK -e 38 -c 2 -a 0 -i 0 -k MAC
r -t 0.523383811 -s 0 -d -1 -p ACK -e 38 -c 2 -a 0 -i 0 -k MAC
+ -t 0.523793339 -s 1 -d -1 -p RTS -e 44 -c 2 -a 0 -i 0 -k MAC 
- -t 0.523793339 -s 1 -d -1 -p RTS -e 44 -c 2 -a 0 -i 0 -k MAC
h -t 0.523793339 -s 1 -d -1 -p RTS -e 44 -c 2 -a 0 -i 0 -k MAC
r -t 0.524145811 -s 0 -d -1 -p RTS -e 44 -c 2 -a 0 -i 0 -k MAC
+ -t 0.524155811 -s 0 -d -1 -p CTS -e 38 -c 2 -a 0 -i 0 -k MAC 
- -t 0.524155811 -s 0 -d -1 -p CTS -e 38 -c 2 -a 0 -i 0 -k MAC
h -t 0.524155811 -s 0 -d -1 -p CTS -e 38 -c 2 -a 0 -i 0 -k MAC
r -t 0.524460282 -s 1 -d -1 -p CTS -e 38 -c 2 -a 0 -i 0 -k MAC
+ -t 0.524470282 -s 1 -d 0 -p AODV -e 102 -c 2 -a 0 -i 0 -k MAC 
- -t 0.524470282 -s 1 -d 0 -p AODV -e 102 -c 2 -a 0 -i 0 -k MAC
h -t 0.524470282 -s 1 -d 0 -p AODV -e 102 -c 2 -a 0 -i 0 -k MAC
r -t 0.525286753 -s 0 -d 0 -p AODV -e 44 -c 2 -a 0 -i 0 -k MAC
+ -t 0.525296753 -s 0 -d -1 -p ACK -e 38 -c 2 -a 0 -i 0 -k MAC 
- -t 0.525296753 -s 0 -d -1 -p ACK -e 38 -c 2 -a 0 -i 0 -k MAC
h -t 0.525296753 -s 0 -d -1 -p ACK -e 38 -c 2 -a 0 -i 0 -k MAC
+ -t 0.525311753 -s 0 -d 1 -p cbr -e 1020 -c 2 -a 0 -i 0 -k RTR 
- -t 0.525311753 -s 0 -d 1 -p cbr -e 1020 -c 2 -a 0 -i 0 -k RTR
h -t 0.525311753 -s 0 -d 1 -p cbr -e 1020 -c 2 -a 0 -i 0 -k RTR
r -t 0.525601225 -s 1 -d -1 -p ACK -e 38 -c 2 -a 0 -i 0 -k MAC
+ -t 0.525730753 -s 0 -d -1 -p RTS -e 44 -c 2 -a 0 -i 0 -k MAC 
- -t 0.525730753 -s 0 -d -1 -p RTS -e 44 -c 2 -a 0 -i 0 -k MAC
h -t 0.525730753 -s 0 -d -1 -p RTS -e 44 -c 2 -a 0 -i 0 -k MAC
r -t 0.526083225 -s 1 -d -1 -p RTS -e 44 -c 2 -a 0 -i 0 -k MAC
+ -t 0.526093225 -s 1 -d -1 -p CTS -e 38 -c 2 -a 0 -i 0 -k MAC 
- -t 0.526093225 -s 1 -d -1 -p CTS -e 38 -c 2 -a 0 -i 0 -k MAC
h -t 0.526093225 -s 1 -d -1 -p CTS -e 38 -c 2 -a 0 -i 0 -k MAC
r -t 0.526397696 -s 0 -d -1 -p CTS -e 38 -c 2 -a 0 -i 0 -k MAC
+ -t 0.526407696 -s 0 -d 1 -p cbr -e 1078 -c 2 -a 0 -i 0 -k MAC 
- -t 0.526407696 -s 0 -d 1 -p cbr -e 1078 -c 2 -a 0 -i 0 -k MAC
h -t 0.526407696 -s 0 -d 1 -p cbr -e 1078 -c 2 -a 0 -i 0 -k MAC
+ -t 0.530000000 -s 0 -d -1 -p cbr -e 1000 -c 2 -a 0 -i 1 -k AGT 
- -t 0.530000000 -s 0 -d -1 -p cbr -e 1000 -c 2 -a 0 -i 1 -k AGT
h -t 0.530000000 -s 0 -d -1 -p cbr -e 1000 -c 2 -a 0 -i 1 -k AGT
+ -t 0.530000000 -s 0 -d 1 -p cbr -e 1020 -c 2 -a 0 -i 1 -k RTR 
- -t 0.530000000 -s 0 -d 1 -p cbr -e 1020 -c 2 -a 0 -i 1 -k RTR
h -t 0.530000000 -s 0 -d 1 -p cbr -e 1020 -c 2 -a 0 -i 1 -k RTR
r -t 0.535032168 -s 1 -d 1 -p cbr -e 1020 -c 2 -a 0 -i 0 -k MAC
+ -t 0.535042168 -s 1 -d -1 -p ACK -e 38 -c 2 -a 0 -i 0 -k MAC 
- -t 0.535042168 -s 1 -d -1 -p ACK -e 38 -c 2 -a 0 -i 0 -k MAC
h -t 0.535042168 -s 1 -d -1 -p ACK -e 38 -c 2 -a 0 -i 0 -k MAC
d -t 0.535057168 -s 1 -d 1 -p cbr -e 1020 -c 2 -a 0 -i 0 -k RTR
d -t 0.535057168 -s 1 -d 0 -p tcp -e 0 -c 2 -a 0 -i 0 -k RTR
r -t 0.535346639 -s 0 -d -1 -p ACK -e 38 -c 2 -a 0 -i 0 -k MAC
+ -t 0.535596639 -s 0 -d -1 -p RTS -e 44 -c 2 -a 0 -i 0 -k MAC 
- -t 0.535596639 -s 0 -d -1 -p RTS -e 44 -c 2 -a 0 -i 0 -k MAC
h -t 0.535596639 -s 0 -d -1 -p RTS -e 44 -c 2 -a 0 -i 0 -k MAC
r -t 0.535949110 -s 1 -d -1 -p RTS -e 44 -c 2 -a 0 -i 0 -k MAC
+ -t 0.535959110 -s 1 -d -1 -p CTS -e 38 -c 2 -a 0 -i 0 -k MAC 
- -t 0.535959110 -s 1 -d -1 -p CTS -e 38 -c 2 -a 0 -i 0 -k MAC
h -t 0.535959110 -s 1 -d -1 -p CTS -e 38 -c 2 -a 0 -i 0 -k MAC
r -t 0.536263582 -s 0 -d -1 -p CTS -e 38 -c 2 -a 0 -i 0 -k MAC
+ -t 0.536273582 -s 0 -d 1 -p cbr -e 1078 -c 2 -a 0 -i 1 -k MAC 
- -t 0.536273582 -s 0 -d 1 -p cbr -e 1078 -c 2 -a 0 -i 1 -k MAC
h -t 0.536273582 -s 0 -d 1 -p cbr -e 1078 -c 2 -a 0 -i 1 -k MAC
r -t 0.544898053 -s 1 -d 1 -p cbr -e 1020 -c 2 -a 0 -i 1 -k MAC
+ -t 0.544908053 -s 1 -d -1 -p ACK -e 38 -c 2 -a 0 -i 0 -k MAC 
- -t 0.544908053 -s 1 -d -1 -p ACK -e 38 -c 2 -a 0 -i 0 -k MAC
h -t 0.544908053 -s 1 -d -1 -p ACK -e 38 -c 2 -a 0 -i 0 -k MAC
d -t 0.544923053 -s 1 -d 1 -p cbr -e 1020 -c 2 -a 0 -i 1 -k RTR
d -t 0.544923053 -s 1 -d 0 -p tcp -e 0 -c 2 -a 0 -i 0 -k RTR
r -t 0.545212525 -s 0 -d -1 -p ACK -e 38 -c 2 -a 0 -i 0 -k MAC
+ -t 0.560000000 -s 0 -d -1 -p cbr -e 1000 -c 2 -a 0 -i 2 -k AGT 
- -t 0.560000000 -s 0 -d -1 -p cbr -e 1000 -c 2 -a 0 -i 2 -k AGT
h -t 0.560000000 -s 0 -d -1 -p cbr -e 1000 -c 2 -a 0 -i 2 -k AGT
+ -t 0.560000000 -s 0 -d 1 -p cbr -e 1020 -c 2 -a 0 -i 2 -k RTR 
- -t 0.560000000 -s 0 -d 1 -p cbr -e 1020 -c 2 -a 0 -i 2 -k RTR
h -t 0.560000000 -s 0 -d 1 -p cbr -e 1020 -c 2 -a 0 -i 2 -k RTR
+ -t 0.560595000 -s 0 -d -1 -p RTS -e 44 -c 2 -a 0 -i 0 -k MAC 
- -t 0.560595000 -s 0 -d -1 -p RTS -e 44 -c 2 -a 0 -i 0 -k MAC
h -t 0.560595000 -s 0 -d -1 -p RTS -e 44 -c 2 -a 0 -i 0 -k MAC
r -t 0.560947471 -s 1 -d -1 -p RTS -e 44 -c 2 -a 0 -i 0 -k MAC
+ -t 0.560957471 -s 1 -d -1 -p CTS -e 38 -c 2 -a 0 -i 0 -k MAC 
- -t 0.560957471 -s 1 -d -1 -p CTS -e 38 -c 2 -a 0 -i 0 -k MAC
h -t 0.560957471 -s 1 -d -1 -p CTS -e 38 -c 2 -a 0 -i 0 -k MAC
r -t 0.561261943 -s 0 -d -1 -p CTS -e 38 -c 2 -a 0 -i 0 -k MAC
+ -t 0.561271943 -s 0 -d 1 -p cbr -e 1078 -c 2 -a 0 -i 2 -k MAC 
- -t 0.561271943 -s 0 -d 1 -p cbr -e 1078 -c 2 -a 0 -i 2 -k MAC
h -t 0.561271943 -s 0 -d 1 -p cbr -e 1078 -c 2 -a 0 -i 2 -k MAC
r -t 0.569896414 -s 1 -d 1 -p cbr -e 1020 -c 2 -a 0 -i 2 -k MAC
+ -t 0.569906414 -s 1 -d -1 -p ACK -e 38 -c 2 -a 0 -i 0 -k MAC 
- -t 0.569906414 -s 1 -d -1 -p ACK -e 38 -c 2 -a 0 -i 0 -k MAC
h -t 0.569906414 -s 1 -d -1 -p ACK -e 38 -c 2 -a 0 -i 0 -k MAC
d -t 0.569921414 -s 1 -d 1 -p cbr -e 1020 -c 2 -a 0 -i 2 -k RTR
d -t 0.569921414 -s 1 -d 0 -p tcp -e 0 -c 2 -a 0 -i 0 -k RTR
r -t 0.570210886 -s 0 -d -1 -p ACK -e 38 -c 2 -a 0 -i 0 -k MAC
+ -t 0.590000000 -s 0 -d -1 -p cbr -e 1000 -c 2 -a 0 -i 3 -k AGT 
- -t 0.590000000 -s 0 -d -1 -p cbr -e 1000 -c 2 -a 0 -i 3 -k AGT
h -t 0.590000000 -s 0 -d -1 -p cbr -e 1000 -c 2 -a 0 -i 3 -k AGT
+ -t 0.590000000 -s 0 -d 1 -p cbr -e 1020 -c 2 -a 0 -i 3 -k RTR 
- -t 0.590000000 -s 0 -d 1 -p cbr -e 1020 -c 2 -a 0 -i 3 -k RTR
h -t 0.590000000 -s 0 -d 1 -p cbr -e 1020 -c 2 -a 0 -i 3 -k RTR
+ -t 0.590275000 -s 0 -d -1 -p RTS -e 44 -c 2 -a 0 -i 0 -k MAC 
- -t 0.590275000 -s 0 -d -1 -p RTS -e 44 -c 2 -a 0 -i 0 -k MAC
h -t 0.590275000 -s 0 -d -1 -p RTS -e 44 -c 2 -a 0 -i 0 -k MAC
r -t 0.590627471 -s 1 -d -1 -p RTS -e 44 -c 2 -a 0 -i 0 -k MAC
+ -t 0.590637471 -s 1 -d -1 -p CTS -e 38 -c 2 -a 0 -i 0 -k MAC 
- -t 0.590637471 -s 1 -d -1 -p CTS -e 38 -c 2 -a 0 -i 0 -k MAC
h -t 0.590637471 -s 1 -d -1 -p CTS -e 38 -c 2 -a 0 -i 0 -k MAC
r -t 0.590941943 -s 0 -d -1 -p CTS -e 38 -c 2 -a 0 -i 0 -k MAC
+ -t 0.590951943 -s 0 -d 1 -p cbr -e 1078 -c 2 -a 0 -i 3 -k MAC 
- -t 0.590951943 -s 0 -d 1 -p cbr -e 1078 -c 2 -a 0 -i 3 -k MAC
h -t 0.590951943 -s 0 -d 1 -p cbr -e 1078 -c 2 -a 0 -i 3 -k MAC
r -t 0.599576414 -s 1 -d 1 -p cbr -e 1020 -c 2 -a 0 -i 3 -k MAC
+ -t 0.599586414 -s 1 -d -1 -p ACK -e 38 -c 2 -a 0 -i 0 -k MAC 
- -t 0.599586414 -s 1 -d -1 -p ACK -e 38 -c 2 -a 0 -i 0 -k MAC
h -t 0.599586414 -s 1 -d -1 -p ACK -e 38 -c 2 -a 0 -i 0 -k MAC
d -t 0.599601414 -s 1 -d 1 -p cbr -e 1020 -c 2 -a 0 -i 3 -k RTR
d -t 0.599601414 -s 1 -d 0 -p tcp -e 0 -c 2 -a 0 -i 0 -k RTR
r -t 0.599890886 -s 0 -d -1 -p ACK -e 38 -c 2 -a 0 -i 0 -k MAC
+ -t 0.620000000 -s 0 -d -1 -p cbr -e 1000 -c 2 -a 0 -i 4 -k AGT 
- -t 0.620000000 -s 0 -d -1 -p cbr -e 1000 -c 2 -a 0 -i 4 -k AGT
h -t 0.620000000 -s 0 -d -1 -p cbr -e 1000 -c 2 -a 0 -i 4 -k AGT
+ -t 0.620000000 -s 0 -d 1 -p cbr -e 1020 -c 2 -a 0 -i 4 -k RTR 
- -t 0.620000000 -s 0 -d 1 -p cbr -e 1020 -c 2 -a 0 -i 4 -k RTR
h -t 0.620000000 -s 0 -d 1 -p cbr -e 1020 -c 2 -a 0 -i 4 -k RTR
+ -t 0.620135000 -s 0 -d -1 -p RTS -e 44 -c 2 -a 0 -i 0 -k MAC 
- -t 0.620135000 -s 0 -d -1 -p RTS -e 44 -c 2 -a 0 -i 0 -k MAC
h -t 0.620135000 -s 0 -d -1 -p RTS -e 44 -c 2 -a 0 -i 0 -k MAC
r -t 0.620487471 -s 1 -d -1 -p RTS -e 44 -c 2 -a 0 -i 0 -k MAC
+ -t 0.620497471 -s 1 -d -1 -p CTS -e 38 -c 2 -a 0 -i 0 -k MAC 
- -t 0.620497471 -s 1 -d -1 -p CTS -e 38 -c 2 -a 0 -i 0 -k MAC
h -t 0.620497471 -s 1 -d -1 -p CTS -e 38 -c 2 -a 0 -i 0 -k MAC
r -t 0.620801943 -s 0 -d -1 -p CTS -e 38 -c 2 -a 0 -i 0 -k MAC
+ -t 0.620811943 -s 0 -d 1 -p cbr -e 1078 -c 2 -a 0 -i 4 -k MAC 
- -t 0.620811943 -s 0 -d 1 -p cbr -e 1078 -c 2 -a 0 -i 4 -k MAC
h -t 0.620811943 -s 0 -d 1 -p cbr -e 1078 -c 2 -a 0 -i 4 -k MAC
r -t 0.629436414 -s 1 -d 1 -p cbr -e 1020 -c 2 -a 0 -i 4 -k MAC
+ -t 0.629446414 -s 1 -d -1 -p ACK -e 38 -c 2 -a 0 -i 0 -k MAC 
- -t 0.629446414 -s 1 -d -1 -p ACK -e 38 -c 2 -a 0 -i 0 -k MAC
h -t 0.629446414 -s 1 -d -1 -p ACK -e 38 -c 2 -a 0 -i 0 -k MAC
d -t 0.629461414 -s 1 -d 1 -p cbr -e 1020 -c 2 -a 0 -i 4 -k RTR
d -t 0.629461414 -s 1 -d 0 -p tcp -e 0 -c 2 -a 0 -i 0 -k RTR
r -t 0.629750886 -s 0 -d -1 -p ACK -e 38 -c 2 -a 0 -i 0 -k MAC
+ -t 0.650000000 -s 0 -d -1 -p cbr -e 1000 -c 2 -a 0 -i 5 -k AGT 
- -t 0.650000000 -s 0 -d -1 -p cbr -e 1000 -c 2 -a 0 -i 5 -k AGT
h -t 0.650000000 -s 0 -d -1 -p cbr -e 1000 -c 2 -a 0 -i 5 -k AGT
+ -t 0.650000000 -s 0 -d 1 -p cbr -e 1020 -c 2 -a 0 -i 5 -k RTR 
- -t 0.650000000 -s 0 -d 1 -p cbr -e 1020 -c 2 -a 0 -i 5 -k RTR
h -t 0.650000000 -s 0 -d 1 -p cbr -e 1020 -c 2 -a 0 -i 5 -k RTR
+ -t 0.650415000 -s 0 -d -1 -p RTS -e 44 -c 2 -a 0 -i 0 -k MAC 
- -t 0.650415000 -s 0 -d -1 -p RTS -e 44 -c 2 -a 0 -i 0 -k MAC
h -t 0.650415000 -s 0 -d -1 -p RTS -e 44 -c 2 -a 0 -i 0 -k MAC
r -t 0.650767471 -s 1 -d -1 -p RTS -e 44 -c 2 -a 0 -i 0 -k MAC
+ -t 0.650777471 -s 1 -d -1 -p CTS -e 38 -c 2 -a 0 -i 0 -k MAC 
- -t 0.650777471 -s 1 -d -1 -p CTS -e 38 -c 2 -a 0 -i 0 -k MAC
h -t 0.650777471 -s 1 -d -1 -p CTS -e 38 -c 2 -a 0 -i 0 -k MAC
r -t 0.651081943 -s 0 -d -1 -p CTS -e 38 -c 2 -a 0 -i 0 -k MAC
+ -t 0.651091943 -s 0 -d 1 -p cbr -e 1078 -c 2 -a 0 -i 5 -k MAC 
- -t 0.651091943 -s 0 -d 1 -p cbr -e 1078 -c 2 -a 0 -i 5 -k MAC
h -t 0.651091943 -s 0 -d 1 -p cbr -e 1078 -c 2 -a 0 -i 5 -k MAC
r -t 0.659716414 -s 1 -d 1 -p cbr -e 1020 -c 2 -a 0 -i 5 -k MAC
+ -t 0.659726414 -s 1 -d -1 -p ACK -e 38 -c 2 -a 0 -i 0 -k MAC 
- -t 0.659726414 -s 1 -d -1 -p ACK -e 38 -c 2 -a 0 -i 0 -k MAC
h -t 0.659726414 -s 1 -d -1 -p ACK -e 38 -c 2 -a 0 -i 0 -k MAC
d -t 0.659741414 -s 1 -d 1 -p cbr -e 1020 -c 2 -a 0 -i 5 -k RTR
d -t 0.659741414 -s 1 -d 0 -p tcp -e 0 -c 2 -a 0 -i 0 -k RTR
r -t 0.660030886 -s 0 -d -1 -p ACK -e 38 -c 2 -a 0 -i 0 -k MAC
+ -t 0.680000000 -s 0 -d -1 -p cbr -e 1000 -c 2 -a 0 -i 6 -k AGT 
- -t 0.680000000 -s 0 -d -1 -p cbr -e 1000 -c 2 -a 0 -i 6 -k AGT
h -t 0.680000000 -s 0 -d -1 -p cbr -e 1000 -c 2 -a 0 -i 6 -k AGT
+ -t 0.680000000 -s 0 -d 1 -p cbr -e 1020 -c 2 -a 0 -i 6 -k RTR 
- -t 0.680000000 -s 0 -d 1 -p cbr -e 1020 -c 2 -a 0 -i 6 -k RTR
h -t 0.680000000 -s 0 -d 1 -p cbr -e 1020 -c 2 -a 0 -i 6 -k RTR
+ -t 0.680355000 -s 0 -d -1 -p RTS -e 44 -c 2 -a 0 -i 0 -k MAC 
- -t 0.680355000 -s 0 -d -1 -p RTS -e 44 -c 2 -a 0 -i 0 -k MAC
h -t 0.680355000 -s 0 -d -1 -p RTS -e 44 -c 2 -a 0 -i 0 -k MAC
r -t 0.680707471 -s 1 -d -1 -p RTS -e 44 -c 2 -a 0 -i 0 -k MAC
+ -t 0.680717471 -s 1 -d -1 -p CTS -e 38 -c 2 -a 0 -i 0 -k MAC 
- -t 0.680717471 -s 1 -d -1 -p CTS -e 38 -c 2 -a 0 -i 0 -k MAC
h -t 0.680717471 -s 1 -d -1 -p CTS -e 38 -c 2 -a 0 -i 0 -k MAC
r -t 0.681021943 -s 0 -d -1 -p CTS -e 38 -c 2 -a 0 -i 0 -k MAC
+ -t 0.681031943 -s 0 -d 1 -p cbr -e 1078 -c 2 -a 0 -i 6 -k MAC 
- -t 0.681031943 -s 0 -d 1 -p cbr -e 1078 -c 2 -a 0 -i 6 -k MAC
h -t 0.681031943 -s 0 -d 1 -p cbr -e 1078 -c 2 -a 0 -i 6 -k MAC
r -t 0.689656414 -s 1 -d 1 -p cbr -e 1020 -c 2 -a 0 -i 6 -k MAC
+ -t 0.689666414 -s 1 -d -1 -p ACK -e 38 -c 2 -a 0 -i 0 -k MAC 
- -t 0.689666414 -s 1 -d -1 -p ACK -e 38 -c 2 -a 0 -i 0 -k MAC
h -t 0.689666414 -s 1 -d -1 -p ACK -e 38 -c 2 -a 0 -i 0 -k MAC
d -t 0.689681414 -s 1 -d 1 -p cbr -e 1020 -c 2 -a 0 -i 6 -k RTR
d -t 0.689681414 -s 1 -d 0 -p tcp -e 0 -c 2 -a 0 -i 0 -k RTR
r -t 0.689970886 -s 0 -d -1 -p ACK -e 38 -c 2 -a 0 -i 0 -k MAC
+ -t 0.710000000 -s 0 -d -1 -p cbr -e 1000 -c 2 -a 0 -i 7 -k AGT 
- -t 0.710000000 -s 0 -d -1 -p cbr -e 1000 -c 2 -a 0 -i 7 -k AGT
h -t 0.710000000 -s 0 -d -1 -p cbr -e 1000 -c 2 -a 0 -i 7 -k AGT
+ -t 0.710000000 -s 0 -d 1 -p cbr -e 1020 -c 2 -a 0 -i 7 -k RTR 
- -t 0.710000000 -s 0 -d 1 -p cbr -e 1020 -c 2 -a 0 -i 7 -k RTR
h -t 0.710000000 -s 0 -d 1 -p cbr -e 1020 -c 2 -a 0 -i 7 -k RTR
+ -t 0.710355000 -s 0 -d -1 -p RTS -e 44 -c 2 -a 0 -i 0 -k MAC 
- -t 0.710355000 -s 0 -d -1 -p RTS -e 44 -c 2 -a 0 -i 0 -k MAC
h -t 0.710355000 -s 0 -d -1 -p RTS -e 44 -c 2 -a 0 -i 0 -k MAC
r -t 0.710707471 -s 1 -d -1 -p RTS -e 44 -c 2 -a 0 -i 0 -k MAC
+ -t 0.710717471 -s 1 -d -1 -p CTS -e 38 -c 2 -a 0 -i 0 -k MAC 
- -t 0.710717471 -s 1 -d -1 -p CTS -e 38 -c 2 -a 0 -i 0 -k MAC
h -t 0.710717471 -s 1 -d -1 -p CTS -e 38 -c 2 -a 0 -i 0 -k MAC
r -t 0.711021943 -s 0 -d -1 -p CTS -e 38 -c 2 -a 0 -i 0 -k MAC
+ -t 0.711031943 -s 0 -d 1 -p cbr -e 1078 -c 2 -a 0 -i 7 -k MAC 
- -t 0.711031943 -s 0 -d 1 -p cbr -e 1078 -c 2 -a 0 -i 7 -k MAC
h -t 0.711031943 -s 0 -d 1 -p cbr -e 1078 -c 2 -a 0 -i 7 -k MAC
r -t 0.719656414 -s 1 -d 1 -p cbr -e 1020 -c 2 -a 0 -i 7 -k MAC
+ -t 0.719666414 -s 1 -d -1 -p ACK -e 38 -c 2 -a 0 -i 0 -k MAC 
- -t 0.719666414 -s 1 -d -1 -p ACK -e 38 -c 2 -a 0 -i 0 -k MAC
h -t 0.719666414 -s 1 -d -1 -p ACK -e 38 -c 2 -a 0 -i 0 -k MAC
d -t 0.719681414 -s 1 -d 1 -p cbr -e 1020 -c 2 -a 0 -i 7 -k RTR
d -t 0.719681414 -s 1 -d 0 -p tcp -e 0 -c 2 -a 0 -i 0 -k RTR
r -t 0.719970886 -s 0 -d -1 -p ACK -e 38 -c 2 -a 0 -i 0 -k MAC
+ -t 0.740000000 -s 0 -d -1 -p cbr -e 1000 -c 2 -a 0 -i 8 -k AGT 
- -t 0.740000000 -s 0 -d -1 -p cbr -e 1000 -c 2 -a 0 -i 8 -k AGT
h -t 0.740000000 -s 0 -d -1 -p cbr -e 1000 -c 2 -a 0 -i 8 -k AGT
+ -t 0.740000000 -s 0 -d 1 -p cbr -e 1020 -c 2 -a 0 -i 8 -k RTR 
- -t 0.740000000 -s 0 -d 1 -p cbr -e 1020 -c 2 -a 0 -i 8 -k RTR
h -t 0.740000000 -s 0 -d 1 -p cbr -e 1020 -c 2 -a 0 -i 8 -k RTR
+ -t 0.740075000 -s 0 -d -1 -p RTS -e 44 -c 2 -a 0 -i 0 -k MAC 
- -t 0.740075000 -s 0 -d -1 -p RTS -e 44 -c 2 -a 0 -i 0 -k MAC
h -t 0.740075000 -s 0 -d -1 -p RTS -e 44 -c 2 -a 0 -i 0 -k MAC
r -t 0.740427471 -s 1 -d -1 -p RTS -e 44 -c 2 -a 0 -i 0 -k MAC
+ -t 0.740437471 -s 1 -d -1 -p CTS -e 38 -c 2 -a 0 -i 0 -k MAC 
- -t 0.740437471 -s 1 -d -1 -p CTS -e 38 -c 2 -a 0 -i 0 -k MAC
h -t 0.740437471 -s 1 -d -1 -p CTS -e 38 -c 2 -a 0 -i 0 -k MAC
r -t 0.740741943 -s 0 -d -1 -p CTS -e 38 -c 2 -a 0 -i 0 -k MAC
+ -t 0.740751943 -s 0 -d 1 -p cbr -e 1078 -c 2 -a 0 -i 8 -k MAC 
- -t 0.740751943 -s 0 -d 1 -p cbr -e 1078 -c 2 -a 0 -i 8 -k MAC
h -t 0.740751943 -s 0 -d 1 -p cbr -e 1078 -c 2 -a 0 -i 8 -k MAC
r -t 0.749376414 -s 1 -d 1 -p cbr -e 1020 -c 2 -a 0 -i 8 -k MAC
+ -t 0.749386414 -s 1 -d -1 -p ACK -e 38 -c 2 -a 0 -i 0 -k MAC 
- -t 0.749386414 -s 1 -d -1 -p ACK -e 38 -c 2 -a 0 -i 0 -k MAC
h -t 0.749386414 -s 1 -d -1 -p ACK -e 38 -c 2 -a 0 -i 0 -k MAC
d -t 0.749401414 -s 1 -d 1 -p cbr -e 1020 -c 2 -a 0 -i 8 -k RTR
d -t 0.749401414 -s 1 -d 0 -p tcp -e 0 -c 2 -a 0 -i 0 -k RTR
r -t 0.749690886 -s 0 -d -1 -p ACK -e 38 -c 2 -a 0 -i 0 -k MAC
+ -t 0.770000000 -s 0 -d -1 -p cbr -e 1000 -c 2 -a 0 -i 9 -k AGT 
- -t 0.770000000 -s 0 -d -1 -p cbr -e 1000 -c 2 -a 0 -i 9 -k AGT
h -t 0.770000000 -s 0 -d -1 -p cbr -e 1000 -c 2 -a 0 -i 9 -k AGT
+ -t 0.770000000 -s 0 -d 1 -p cbr -e 1020 -c 2 -a 0 -i 9 -k RTR 
- -t 0.770000000 -s 0 -d 1 -p cbr -e 1020 -c 2 -a 0 -i 9 -k RTR
h -t 0.770000000 -s 0 -d 1 -p cbr -e 1020 -c 2 -a 0 -i 9 -k RTR
+ -t 0.770395000 -s 0 -d -1 -p RTS -e 44 -c 2 -a 0 -i 0 -k MAC 
- -t 0.770395000 -s 0 -d -1 -p RTS -e 44 -c 2 -a 0 -i 0 -k MAC
h -t 0.770395000 -s 0 -d -1 -p RTS -e 44 -c 2 -a 0 -i 0 -k MAC
r -t 0.770747471 -s 1 -d -1 -p RTS -e 44 -c 2 -a 0 -i 0 -k MAC
+ -t 0.770757471 -s 1 -d -1 -p CTS -e 38 -c 2 -a 0 -i 0 -k MAC 
- -t 0.770757471 -s 1 -d -1 -p CTS -e 38 -c 2 -a 0 -i 0 -k MAC
h -t 0.770757471 -s 1 -d -1 -p CTS -e 38 -c 2 -a 0 -i 0 -k MAC
r -t 0.771061943 -s 0 -d -1 -p CTS -e 38 -c 2 -a 0 -i 0 -k MAC
+ -t 0.771071943 -s 0 -d 1 -p cbr -e 1078 -c 2 -a 0 -i 9 -k MAC 
- -t 0.771071943 -s 0 -d 1 -p cbr -e 1078 -c 2 -a 0 -i 9 -k MAC
h -t 0.771071943 -s 0 -d 1 -p cbr -e 1078 -c 2 -a 0 -i 9 -k MAC
r -t 0.779696414 -s 1 -d 1 -p cbr -e 1020 -c 2 -a 0 -i 9 -k MAC
+ -t 0.779706414 -s 1 -d -1 -p ACK -e 38 -c 2 -a 0 -i 0 -k MAC 
- -t 0.779706414 -s 1 -d -1 -p ACK -e 38 -c 2 -a 0 -i 0 -k MAC
h -t 0.779706414 -s 1 -d -1 -p ACK -e 38 -c 2 -a 0 -i 0 -k MAC
d -t 0.779721414 -s 1 -d 1 -p cbr -e 1020 -c 2 -a 0 -i 9 -k RTR
d -t 0.779721414 -s 1 -d 0 -p tcp -e 0 -c 2 -a 0 -i 0 -k RTR
r -t 0.780010886 -s 0 -d -1 -p ACK -e 38 -c 2 -a 0 -i 0 -k MAC
+ -t 0.800000000 -s 0 -d -1 -p cbr -e 1000 -c 2 -a 0 -i 10 -k AGT 
- -t 0.800000000 -s 0 -d -1 -p cbr -e 1000 -c 2 -a 0 -i 10 -k AGT
h -t 0.800000000 -s 0 -d -1 -p cbr -e 1000 -c 2 -a 0 -i 10 -k AGT
+ -t 0.800000000 -s 0 -d 1 -p cbr -e 1020 -c 2 -a 0 -i 10 -k RTR 
- -t 0.800000000 -s 0 -d 1 -p cbr -e 1020 -c 2 -a 0 -i 10 -k RTR
h -t 0.800000000 -s 0 -d 1 -p cbr -e 1020 -c 2 -a 0 -i 10 -k RTR
+ -t 0.800295000 -s 0 -d -1 -p RTS -e 44 -c 2 -a 0 -i 0 -k MAC 
- -t 0.800295000 -s 0 -d -1 -p RTS -e 44 -c 2 -a 0 -i 0 -k MAC
h -t 0.800295000 -s 0 -d -1 -p RTS -e 44 -c 2 -a 0 -i 0 -k MAC
r -t 0.800647471 -s 1 -d -1 -p RTS -e 44 -c 2 -a 0 -i 0 -k MAC
+ -t 0.800657471 -s 1 -d -1 -p CTS -e 38 -c 2 -a 0 -i 0 -k MAC 
- -t 0.800657471 -s 1 -d -1 -p CTS -e 38 -c 2 -a 0 -i 0 -k MAC
h -t 0.800657471 -s 1 -d -1 -p CTS -e 38 -c 2 -a 0 -i 0 -k MAC
r -t 0.800961943 -s 0 -d -1 -p CTS -e 38 -c 2 -a 0 -i 0 -k MAC
+ -t 0.800971943 -s 0 -d 1 -p cbr -e 1078 -c 2 -a 0 -i 10 -k MAC 
- -t 0.800971943 -s 0 -d 1 -p cbr -e 1078 -c 2 -a 0 -i 10 -k MAC
h -t 0.800971943 -s 0 -d 1 -p cbr -e 1078 -c 2 -a 0 -i 10 -k MAC
r -t 0.809596414 -s 1 -d 1 -p cbr -e 1020 -c 2 -a 0 -i 10 -k MAC
+ -t 0.809606414 -s 1 -d -1 -p ACK -e 38 -c 2 -a 0 -i 0 -k MAC 
- -t 0.809606414 -s 1 -d -1 -p ACK -e 38 -c 2 -a 0 -i 0 -k MAC
h -t 0.809606414 -s 1 -d -1 -p ACK -e 38 -c 2 -a 0 -i 0 -k MAC
d -t 0.809621414 -s 1 -d 1 -p cbr -e 1020 -c 2 -a 0 -i 10 -k RTR
d -t 0.809621414 -s 1 -d 0 -p tcp -e 0 -c 2 -a 0 -i 0 -k RTR
r -t 0.809910886 -s 0 -d -1 -p ACK -e 38 -c 2 -a 0 -i 0 -k MAC
+ -t 0.830000000 -s 0 -d -1 -p cbr -e 1000 -c 2 -a 0 -i 11 -k AGT 
- -t 0.830000000 -s 0 -d -1 -p cbr -e 1000 -c 2 -a 0 -i 11 -k AGT
h -t 0.830000000 -s 0 -d -1 -p cbr -e 1000 -c 2 -a 0 -i 11 -k AGT
+ -t 0.830000000 -s 0 -d 1 -p cbr -e 1020 -c 2 -a 0 -i 11 -k RTR 
- -t 0.830000000 -s 0 -d 1 -p cbr -e 1020 -c 2 -a 0 -i 11 -k RTR