M 0.00000 0 (0.00, 0.00, 0.00), (100.00, 100.00), 3000.00
M 0.00000 1 (0.00, 0.00, 0.00), (200.00, 200.00), 3000.00
M 0.00000 2 (0.00, 0.00, 0.00), (300.00, 300.00), 3000.00
M 0.00000 3 (0.00, 0.00, 0.00), (400.00, 300.00), 3000.00
M 0.00000 4 (0.00, 0.00, 0.00), (500.00, 300.00), 3000.00
M 0.00000 5 (0.00, 0.00, 0.00), (600.00, 400.00), 3000.00
s 0.500000000 _0_ AGT  --- 0 cbr 1000 [0 0 0 0] ------- [0:2 5:0 32 0] [0] 0 0
r 0.500000000 _0_ RTR  --- 0 cbr 1000 [0 0 0 0] ------- [0:2 5:0 32 0] [0] 0 0
s 0.500000000 _0_ RTR  --- 0 AODV 48 [0 0 0 0] ------- [0:255 -1:255 30 0] [0x2 1 1 [5 0] [0 4]] (REQUEST)
s 0.500235000 _0_ MAC  --- 0 AODV 106 [0 ffffffff 0 800] ------- [0:255 -1:255 30 0] [0x2 1 1 [5 0] [0 4]] (REQUEST)
r 0.501083471 _1_ MAC  --- 0 AODV 48 [0 ffffffff 0 800] ------- [0:255 -1:255 30 0] [0x2 1 1 [5 0] [0 4]] (REQUEST)
r 0.501108471 _1_ RTR  --- 0 AODV 48 [0 ffffffff 0 800] ------- [0:255 -1:255 30 0] [0x2 1 1 [5 0] [0 4]] (REQUEST)
s 0.503454489 _1_ RTR  --- 0 AODV 48 [0 ffffffff 0 800] ------- [1:255 -1:255 29 0] [0x2 2 1 [5 0] [0 4]] (REQUEST)
s 0.503889489 _1_ MAC  --- 0 AODV 106 [0 ffffffff 1 800] ------- [1:255 -1:255 29 0] [0x2 2 1 [5 0] [0 4]] (REQUEST)
r 0.504737960 _0_ MAC  --- 0 AODV 48 [0 ffffffff 1 800] ------- [1:255 -1:255 29 0] [0x2 2 1 [5 0] [0 4]] (REQUEST)
r 0.504737960 _2_ MAC  --- 0 AODV 48 [0 ffffffff 1 800] ------- [1:255 -1:255 29 0] [0x2 2 1 [5 0] [0 4]] (REQUEST)
r 0.504738234 _3_ MAC  --- 0 AODV 48 [0 ffffffff 1 800] ------- [1:255 -1:255 29 0] [0x2 2 1 [5 0] [0 4]] (REQUEST)
r 0.504762960 _0_ RTR  --- 0 AODV 48 [0 ffffffff 1 800] ------- [1:255 -1:255 29 0] [0x2 2 1 [5 0] [0 4]] (REQUEST)
r 0.504762960 _2_ RTR  --- 0 AODV 48 [0 ffffffff 1 800] ------- [1:255 -1:255 29 0] [0x2 2 1 [5 0] [0 4]] (REQUEST)
r 0.504763234 _3_ RTR  --- 0 AODV 48 [0 ffffffff 1 800] ------- [1:255 -1:255 29 0] [0x2 2 1 [5 0] [0 4]] (REQUEST)
s 0.506404688 _3_ RTR  --- 0 AODV 48 [0 ffffffff 1 800] ------- [3:255 -1:255 28 0] [0x2 3 1 [5 0] [0 4]] (REQUEST)
s 0.507019688 _3_ MAC  --- 0 AODV 106 [0 ffffffff 3 800] ------- [3:255 -1:255 28 0] [0x2 3 1 [5 0] [0 4]] (REQUEST)
r 0.507868022 _2_ MAC  --- 0 AODV 48 [0 ffffffff 3 800] ------- [3:255 -1:255 28 0] [0x2 3 1 [5 0] [0 4]] (REQUEST)
r 0.507868022 _4_ MAC  --- 0 AODV 48 [0 ffffffff 3 800] ------- [3:255 -1:255 28 0] [0x2 3 1 [5 0] [0 4]] (REQUEST)
r 0.507868434 _1_ MAC  --- 0 AODV 48 [0 ffffffff 3 800] ------- [3:255 -1:255 28 0] [0x2 3 1 [5 0] [0 4]] (REQUEST)
r 0.507868434 _5_ MAC  --- 0 AODV 48 [0 ffffffff 3 800] ------- [3:255 -1:255 28 0] [0x2 3 1 [5 0] [0 4]] (REQUEST)
r 0.507893022 _2_ RTR  --- 0 AODV 48 [0 ffffffff 3 800] ------- [3:255 -1:255 28 0] [0x2 3 1 [5 0] [0 4]] (REQUEST)
r 0.507893022 _4_ RTR  --- 0 AODV 48 [0 ffffffff 3 800] ------- [3:255 -1:255 28 0] [0x2 3 1 [5 0] [0 4]] (REQUEST)
r 0.507893434 _1_ RTR  --- 0 AODV 48 [0 ffffffff 3 800] ------- [3:255 -1:255 28 0] [0x2 3 1 [5 0] [0 4]] (REQUEST)
r 0.507893434 _5_ RTR  --- 0 AODV 48 [0 ffffffff 3 800] ------- [3:255 -1:255 28 0] [0x2 3 1 [5 0] [0 4]] (REQUEST)
s 0.507893434 _5_ RTR  --- 0 AODV 44 [0 0 0 0] ------- [5:255 0:255 30 3] [0x4 1 [5 4] 10.000000] (REPLY)
s 0.508188434 _5_ MAC  --- 0 ARP 86 [0 ffffffff 5 806] ------- [REQUEST 5/5 0/3]
r 0.508876905 _4_ MAC  --- 0 ARP 28 [0 ffffffff 5 806] ------- [REQUEST 5/5 0/3]
r 0.508877179 _3_ MAC  --- 0 ARP 28 [0 ffffffff 5 806] ------- [REQUEST 5/5 0/3]
s 0.509031104 _4_ RTR  --- 0 AODV 48 [0 ffffffff 3 800] ------- [4:255 -1:255 27 0] [0x2 4 1 [5 0] [0 4]] (REQUEST)
s 0.509412179 _3_ MAC  --- 0 RTS 44 [52e 5 3 0] 
r 0.509764924 _5_ MAC  --- 0 RTS 44 [52e 5 3 0] 
s 0.509774924 _5_ MAC  --- 0 CTS 38 [3f4 3 0 0] 
r 0.510079670 _3_ MAC  --- 0 CTS 38 [3f4 3 0 0] 
s 0.510089670 _3_ MAC  --- 0 ARP 86 [13a 5 3 806] ------- [REPLY 3/3 5/5]
r 0.510778415 _5_ MAC  --- 0 ARP 28 [13a 5 3 806] ------- [REPLY 3/3 5/5]
s 0.510788415 _5_ MAC  --- 0 ACK 38 [0 3 0 0] 
r 0.511093160 _3_ MAC  --- 0 ACK 38 [0 3 0 0] 
s 0.511182887 _4_ MAC  --- 0 AODV 106 [0 ffffffff 4 800] ------- [4:255 -1:255 27 0] [0x2 4 1 [5 0] [0 4]] (REQUEST)
r 0.512031220 _3_ MAC  --- 0 AODV 48 [0 ffffffff 4 800] ------- [4:255 -1:255 27 0] [0x2 4 1 [5 0] [0 4]] (REQUEST)
r 0.512031358 _5_ MAC  --- 0 AODV 48 [0 ffffffff 4 800] ------- [4:255 -1:255 27 0] [0x2 4 1 [5 0] [0 4]] (REQUEST)
r 0.512031553 _2_ MAC  --- 0 AODV 48 [0 ffffffff 4 800] ------- [4:255 -1:255 27 0] [0x2 4 1 [5 0] [0 4]] (REQUEST)
r 0.512056220 _3_ RTR  --- 0 AODV 48 [0 ffffffff 4 800] ------- [4:255 -1:255 27 0] [0x2 4 1 [5 0] [0 4]] (REQUEST)
r 0.512056358 _5_ RTR  --- 0 AODV 48 [0 ffffffff 4 800] ------- [4:255 -1:255 27 0] [0x2 4 1 [5 0] [0 4]] (REQUEST)
r 0.512056553 _2_ RTR  --- 0 AODV 48 [0 ffffffff 4 800] ------- [4:255 -1:255 27 0] [0x2 4 1 [5 0] [0 4]] (REQUEST)
s 0.512361358 _5_ MAC  --- 0 RTS 44 [5ae 3 5 0] 
r 0.512714103 _3_ MAC  --- 0 RTS 44 [5ae 3 5 0] 
s 0.512724103 _3_ MAC  --- 0 CTS 38 [474 5 0 0] 
r 0.513028849 _5_ MAC  --- 0 CTS 38 [474 5 0 0] 
s 0.513038849 _5_ MAC  --- 0 AODV 102 [13a 3 5 800] ------- [5:255 0:255 30 3] [0x4 1 [5 4] 10.000000] (REPLY)
s 0.513126196 _2_ RTR  --- 0 AODV 48 [0 ffffffff 1 800] ------- [2:255 -1:255 28 0] [0x2 3 1 [5 0] [0 4]] (REQUEST)
r 0.513855594 _3_ MAC  --- 0 AODV 44 [13a 3 5 800] ------- [5:255 0:255 30 3] [0x4 1 [5 4] 10.000000] (REPLY)
s 0.513865594 _3_ MAC  --- 0 ACK 38 [0 5 0 0] 
r 0.513880594 _3_ RTR  --- 0 AODV 44 [13a 3 5 800] ------- [5:255 0:255 30 3] [0x4 1 [5 4] 10.000000] (REPLY)
f 0.513880594 _3_ RTR  --- 0 AODV 44 [13a 3 5 800] ------- [5:255 0:255 29 1] [0x4 2 [5 4] 10.000000] (REPLY)
r 0.514170339 _5_ MAC  --- 0 ACK 38 [0 5 0 0] 
s 0.514289903 _2_ MAC  --- 0 AODV 106 [0 ffffffff 2 800] ------- [2:255 -1:255 28 0] [0x2 3 1 [5 0] [0 4]] (REQUEST)
r 0.515138236 _3_ MAC  --- 0 AODV 48 [0 ffffffff 2 800] ------- [2:255 -1:255 28 0] [0x2 3 1 [5 0] [0 4]] (REQUEST)
r 0.515138374 _1_ MAC  --- 0 AODV 48 [0 ffffffff 2 800] ------- [2:255 -1:255 28 0] [0x2 3 1 [5 0] [0 4]] (REQUEST)
r 0.515138569 _4_ MAC  --- 0 AODV 48 [0 ffffffff 2 800] ------- [2:255 -1:255 28 0] [0x2 3 1 [5 0] [0 4]] (REQUEST)
r 0.515163236 _3_ RTR  --- 0 AODV 48 [0 ffffffff 2 800] ------- [2:255 -1:255 28 0] [0x2 3 1 [5 0] [0 4]] (REQUEST)
r 0.515163374 _1_ RTR  --- 0 AODV 48 [0 ffffffff 2 800] ------- [2:255 -1:255 28 0] [0x2 3 1 [5 0] [0 4]] (REQUEST)
r 0.515163569 _4_ RTR  --- 0 AODV 48 [0 ffffffff 2 800] ------- [2:255 -1:255 28 0] [0x2 3 1 [5 0] [0 4]] (REQUEST)
s 0.515368236 _3_ MAC  --- 0 ARP 86 [0 ffffffff 3 806] ------- [REQUEST 3/3 0/1]
r 0.516056569 _2_ MAC  --- 0 ARP 28 [0 ffffffff 3 806] ------- [REQUEST 3/3 0/1]
r 0.516056569 _4_ MAC  --- 0 ARP 28 [0 ffffffff 3 806] ------- [REQUEST 3/3 0/1]
r 0.516056981 _1_ MAC  --- 0 ARP 28 [0 ffffffff 3 806] ------- [REQUEST 3/3 0/1]
r 0.516056981 _5_ MAC  --- 0 ARP 28 [0 ffffffff 3 806] ------- [REQUEST 3/3 0/1]
s 0.516511981 _1_ MAC  --- 0 RTS 44 [52e 3 1 0] 
r 0.516864727 _3_ MAC  --- 0 RTS 44 [52e 3 1 0] 
s 0.516874727 _3_ MAC  --- 0 CTS 38 [3f4 1 0 0] 
r 0.517179472 _1_ MAC  --- 0 CTS 38 [3f4 1 0 0] 
s 0.517189472 _1_ MAC  --- 0 ARP 86 [13a 3 1 806] ------- [REPLY 1/1 3/3]
r 0.517878217 _3_ MAC  --- 0 ARP 28 [13a 3 1 806] ------- [REPLY 1/1 3/3]
s 0.517888217 _3_ MAC  --- 0 ACK 38 [0 1 0 0] 
r 0.518192963 _1_ MAC  --- 0 ACK 38 [0 1 0 0] 
s 0.518422217 _3_ MAC  --- 0 RTS 44 [5ae 1 3 0] 
r 0.518774963 _1_ MAC  --- 0 RTS 44 [5ae 1 3 0] 
s 0.518784963 _1_ MAC  --- 0 CTS 38 [474 3 0 0] 
r 0.519089708 _3_ MAC  --- 0 CTS 38 [474 3 0 0] 
s 0.519099708 _3_ MAC  --- 0 AODV 102 [13a 1 3 800] ------- [5:255 0:255 29 1] [0x4 2 [5 4] 10.000000] (REPLY)
r 0.519916454 _1_ MAC  --- 0 AODV 44 [13a 1 3 800] ------- [5:255 0:255 29 1] [0x4 2 [5 4] 10.000000] (REPLY)
s 0.519926454 _1_ MAC  --- 0 ACK 38 [0 3 0 0] 
r 0.519941454 _1_ RTR  --- 0 AODV 44 [13a 1 3 800] ------- [5:255 0:255 29 1] [0x4 2 [5 4] 10.000000] (REPLY)
f 0.519941454 _1_ RTR  --- 0 AODV 44 [13a 1 3 800] ------- [5:255 0:255 28 0] [0x4 3 [5 4] 10.000000] (REPLY)
r 0.520231199 _3_ MAC  --- 0 ACK 38 [0 3 0 0] 
s 0.520660454 _1_ MAC  --- 0 ARP 86 [0 ffffffff 1 806] ------- [REQUEST 1/1 0/0]
r 0.521348925 _0_ MAC  --- 0 ARP 28 [0 ffffffff 1 806] ------- [REQUEST 1/1 0/0]
r 0.521348925 _2_ MAC  --- 0 ARP 28 [0 ffffffff 1 806] ------- [REQUEST 1/1 0/0]
r 0.521349199 _3_ MAC  --- 0 ARP 28 [0 ffffffff 1 806] ------- [REQUEST 1/1 0/0]
s 0.521703925 _0_ MAC  --- 0 RTS 44 [52e 1 0 0] 
r 0.522056396 _1_ MAC  --- 0 RTS 44 [52e 1 0 0] 
s 0.522066396 _1_ MAC  --- 0 CTS 38 [3f4 0 0 0] 
r 0.522370868 _0_ MAC  --- 0 CTS 38 [3f4 0 0 0] 
s 0.522380868 _0_ MAC  --- 0 ARP 86 [13a 1 0 806] ------- [REPLY 0/0 1/1]
r 0.523069339 _1_ MAC  --- 0 ARP 28 [13a 1 0 806] ------- [REPLY 0/0 1/1]
s 0.523079339 _1_ MAC  --- 0 ACK 38 [0 0 0 0] 
r 0.523383811 _0_ MAC  --- 0 ACK 38 [0 0 0 0] 
s 0.523793339 _1_ MAC  --- 0 RTS 44 [5ae 0 1 0] 
r 0.524145811 _0_ MAC  --- 0 RTS 44 [5ae 0 1 0] 
s 0.524155811 _0_ MAC  --- 0 CTS 38 [474 1 0 0] 
r 0.524460282 _1_ MAC  --- 0 CTS 38 [474 1 0 0] 
s 0.524470282 _1_ MAC  --- 0 AODV 102 [13a 0 1 800] ------- [5:255 0:255 28 0] [0x4 3 [5 4] 10.000000] (REPLY)
r 0.525286753 _0_ MAC  --- 0 AODV 44 [13a 0 1 800] ------- [5:255 0:255 28 0] [0x4 3 [5 4] 10.000000] (REPLY)
s 0.525296753 _0_ MAC  --- 0 ACK 38 [0 1 0 0] 
r 0.525311753 _0_ RTR  --- 0 AODV 44 [13a 0 1 800] ------- [5:255 0:255 28 0] [0x4 3 [5 4] 10.000000] (REPLY)
s 0.525311753 _0_ RTR  --- 0 cbr 1020 [0 0 0 0] ------- [0:2 5:0 30 1] [0] 0 0
r 0.525601225 _1_ MAC  --- 0 ACK 38 [0 1 0 0] 
s 0.525730753 _0_ MAC  --- 0 RTS 44 [242e 1 0 0] 
r 0.526083225 _1_ MAC  --- 0 RTS 44 [242e 1 0 0] 
s 0.526093225 _1_ MAC  --- 0 CTS 38 [22f4 0 0 0] 
r 0.526397696 _0_ MAC  --- 0 CTS 38 [22f4 0 0 0] 
s 0.526407696 _0_ MAC  --- 0 cbr 1078 [13a 1 0 800] ------- [0:2 5:0 30 1] [0] 0 0
s 0.530000000 _0_ AGT  --- 1 cbr 1000 [0 0 0 0] ------- [0:2 5:0 32 0] [1] 0 0
r 0.530000000 _0_ RTR  --- 1 cbr 1000 [0 0 0 0] ------- [0:2 5:0 32 0] [1] 0 0
s 0.530000000 _0_ RTR  --- 1 cbr 1020 [0 0 0 0] ------- [0:2 5:0 30 1] [1] 0 0
r 0.535032168 _1_ MAC  --- 0 cbr 1020 [13a 1 0 800] ------- [0:2 5:0 30 1] [0] 1 0
s 0.535042168 _1_ MAC  --- 0 ACK 38 [0 0 0 0] 
r 0.535057168 _1_ RTR  --- 0 cbr 1020 [13a 1 0 800] ------- [0:2 5:0 30 1] [0] 1 0
D 0.535057168 _1_ RTR LOOP 0 cbr 1020 [13a 1 0 800] ------- [0:2 5:0 29 1] [0] 1 0
D 0.535057168 _1_ RTR  TTL 0 tcp 0 [0 0 0 0] ------- [0:0 0:0 0 0] [0 0] 0 0
r 0.535346639 _0_ MAC  --- 0 ACK 38 [0 0 0 0] 
s 0.535596639 _0_ MAC  --- 0 RTS 44 [242e 1 0 0] 
r 0.535949110 _1_ MAC  --- 0 RTS 44 [242e 1 0 0] 
s 0.535959110 _1_ MAC  --- 0 CTS 38 [22f4 0 0 0] 
r 0.536263582 _0_ MAC  --- 0 CTS 38 [22f4 0 0 0] 
s 0.536273582 _0_ MAC  --- 1 cbr 1078 [13a 1 0 800] ------- [0:2 5:0 30 1] [1] 0 0
r 0.544898053 _1_ MAC  --- 1 cbr 1020 [13a 1 0 800] ------- [0:2 5:0 30 1] [1] 1 0
s 0.544908053 _1_ MAC  --- 0 ACK 38 [0 0 0 0] 
r 0.544923053 _1_ RTR  --- 1 cbr 1020 [13a 1 0 800] ------- [0:2 5:0 30 1] [1] 1 0
D 0.544923053 _1_ RTR LOOP 1 cbr 1020 [13a 1 0 800] ------- [0:2 5:0 29 1] [1] 1 0
D 0.544923053 _1_ RTR  TTL 0 tcp 0 [0 0 0 0] ------- [0:0 0:0 0 0] [0 0] 0 0
r 0.545212525 _0_ MAC  --- 0 ACK 38 [0 0 0 0] 
s 0.560000000 _0_ AGT  --- 2 cbr 1000 [0 0 0 0] ------- [0:2 5:0 32 0] [2] 0 0
r 0.560000000 _0_ RTR  --- 2 cbr 1000 [0 0 0 0] ------- [0:2 5:0 32 0] [2] 0 0
s 0.560000000 _0_ RTR  --- 2 cbr 1020 [0 0 0 0] ------- [0:2 5:0 30 1] [2] 0 0
s 0.560595000 _0_ MAC  --- 0 RTS 44 [242e 1 0 0] 
r 0.560947471 _1_ MAC  --- 0 RTS 44 [242e 1 0 0] 
s 0.560957471 _1_ MAC  --- 0 CTS 38 [22f4 0 0 0] 
r 0.561261943 _0_ MAC  --- 0 CTS 38 [22f4 0 0 0] 
s 0.561271943 _0_ MAC  --- 2 cbr 1078 [13a 1 0 800] ------- [0:2 5:0 30 1] [2] 0 0
r 0.569896414 _1_ MAC  --- 2 cbr 1020 [13a 1 0 800] ------- [0:2 5:0 30 1] [2] 1 0
s 0.569906414 _1_ MAC  --- 0 ACK 38 [0 0 0 0] 
r 0.569921414 _1_ RTR  --- 2 cbr 1020 [13a 1 0 800] ------- [0:2 5:0 30 1] [2] 1 0
D 0.569921414 _1_ RTR LOOP 2 cbr 1020 [13a 1 0 800] ------- [0:2 5:0 29 1] [2] 1 0
D 0.569921414 _1_ RTR  TTL 0 tcp 0 [0 0 0 0] ------- [0:0 0:0 0 0] [0 0] 0 0
r 0.570210886 _0_ MAC  --- 0 ACK 38 [0 0 0 0] 
s 0.590000000 _0_ AGT  --- 3 cbr 1000 [0 0 0 0] ------- [0:2 5:0 32 0] [3] 0 0
r 0.590000000 _0_ RTR  --- 3 cbr 1000 [0 0 0 0] ------- [0:2 5:0 32 0] [3] 0 0
s 0.590000000 _0_ RTR  --- 3 cbr 1020 [0 0 0 0] ------- [0:2 5:0 30 1] [3] 0 0
s 0.590275000 _0_ MAC  --- 0 RTS 44 [242e 1 0 0] 
r 0.590627471 _1_ MAC  --- 0 RTS 44 [242e 1 0 0] 
s 0.590637471 _1_ MAC  --- 0 CTS 38 [22f4 0 0 0] 
r 0.590941943 _0_ MAC  --- 0 CTS 38 [22f4 0 0 0] 
s 0.590951943 _0_ MAC  --- 3 cbr 1078 [13a 1 0 800] ------- [0:2 5:0 30 1] [3] 0 0
r 0.599576414 _1_ MAC  --- 3 cbr 1020 [13a 1 0 800] ------- [0:2 5:0 30 1] [3] 1 0
s 0.599586414 _1_ MAC  --- 0 ACK 38 [0 0 0 0] 
r 0.599601414 _1_ RTR  --- 3 cbr 1020 [13a 1 0 800] ------- [0:2 5:0 30 1] [3] 1 0
D 0.599601414 _1_ RTR LOOP 3 cbr 1020 [13a 1 0 800] ------- [0:2 5:0 29 1] [3] 1 0
D 0.599601414 _1_ RTR  TTL 0 tcp 0 [0 0 0 0] ------- [0:0 0:0 0 0] [0 0] 0 0
r 0.599890886 _0_ MAC  --- 0 ACK 38 [0 0 0 0] 
s 0.620000000 _0_ AGT  --- 4 cbr 1000 [0 0 0 0] ------- [0:2 5:0 32 0] [4] 0 0
r 0.620000000 _0_ RTR  --- 4 cbr 1000 [0 0 0 0] ------- [0:2 5:0 32 0] [4] 0 0
s 0.620000000 _0_ RTR  --- 4 cbr 1020 [0 0 0 0] ------- [0:2 5:0 30 1] [4] 0 0
s 0.620135000 _0_ MAC  --- 0 RTS 44 [242e 1 0 0] 
r 0.620487471 _1_ MAC  --- 0 RTS 44 [242e 1 0 0] 
s 0.620497471 _1_ MAC  --- 0 CTS 38 [22f4 0 0 0] 
r 0.620801943 _0_ MAC  --- 0 CTS 38 [22f4 0 0 0] 
s 0.620811943 _0_ MAC  --- 4 cbr 1078 [13a 1 0 800] ------- [0:2 5:0 30 1] [4] 0 0
r 0.629436414 _1_ MAC  --- 4 cbr 1020 [13a 1 0 800] ------- [0:2 5:0 30 1] [4] 1 0
s 0.629446414 _1_ MAC  --- 0 ACK 38 [0 0 0 0] 
r 0.629461414 _1_ RTR  --- 4 cbr 1020 [13a 1 0 800] ------- [0:2 5:0 30 1] [4] 1 0
D 0.629461414 _1_ RTR LOOP 4 cbr 1020 [13a 1 0 800] ------- [0:2 5:0 29 1] [4] 1 0
D 0.629461414 _1_ RTR  TTL 0 tcp 0 [0 0 0 0] ------- [0:0 0:0 0 0] [0 0] 0 0
r 0.629750886 _0_ MAC  --- 0 ACK 38 [0 0 0 0] 
s 0.650000000 _0_ AGT  --- 5 cbr 1000 [0 0 0 0] ------- [0:2 5:0 32 0] [5] 0 0
r 0.650000000 _0_ RTR  --- 5 cbr 1000 [0 0 0 0] ------- [0:2 5:0 32 0] [5] 0 0
s 0.650000000 _0_ RTR  --- 5 cbr 1020 [0 0 0 0] ------- [0:2 5:0 30 1] [5] 0 0
s 0.650415000 _0_ MAC  --- 0 RTS 44 [242e 1 0 0] 
r 0.650767471 _1_ MAC  --- 0 RTS 44 [242e 1 0 0] 
s 0.650777471 _1_ MAC  --- 0 CTS 38 [22f4 0 0 0] 
r 0.651081943 _0_ MAC  --- 0 CTS 38 [22f4 0 0 0] 
s 0.651091943 _0_ MAC  --- 5 cbr 1078 [13a 1 0 800] ------- [0:2 5:0 30 1] [5] 0 0
r 0.659716414 _1_ MAC  --- 5 cbr 1020 [13a 1 0 800] ------- [0:2 5:0 30 1] [5] 1 0
s 0.659726414 _1_ MAC  --- 0 ACK 38 [0 0 0 0] 
r 0.659741414 _1_ RTR  --- 5 cbr 1020 [13a 1 0 800] ------- [0:2 5:0 30 1] [5] 1 0
D 0.659741414 _1_ RTR LOOP 5 cbr 1020 [13a 1 0 800] ------- [0:2 5:0 29 1] [5] 1 0
D 0.659741414 _1_ RTR  TTL 0 tcp 0 [0 0 0 0] ------- [0:0 0:0 0 0] [0 0] 0 0
r 0.660030886 _0_ MAC  --- 0 ACK 38 [0 0 0 0] 
s 0.680000000 _0_ AGT  --- 6 cbr 1000 [0 0 0 0] ------- [0:2 5:0 32 0] [6] 0 0
r 0.680000000 _0_ RTR  --- 6 cbr 1000 [0 0 0 0] ------- [0:2 5:0 32 0] [6] 0 0
s 0.680000000 _0_ RTR  --- 6 cbr 1020 [0 0 0 0] ------- [0:2 5:0 30 1] [6] 0 0
s 0.680355000 _0_ MAC  --- 0 RTS 44 [242e 1 0 0] 
r 0.680707471 _1_ MAC  --- 0 RTS 44 [242e 1 0 0] 
s 0.680717471 _1_ MAC  --- 0 CTS 38 [22f4 0 0 0] 
r 0.681021943 _0_ MAC  --- 0 CTS 38 [22f4 0 0 0] 
s 0.681031943 _0_ MAC  --- 6 cbr 1078 [13a 1 0 800] ------- [0:2 5:0 30 1] [6] 0 0
r 0.689656414 _1_ MAC  --- 6 cbr 1020 [13a 1 0 800] ------- [0:2 5:0 30 1] [6] 1 0
s 0.689666414 _1_ MAC  --- 0 ACK 38 [0 0 0 0] 
r 0.689681414 _1_ RTR  --- 6 cbr 1020 [13a 1 0 800] ------- [0:2 5:0 30 1] [6] 1 0
D 0.689681414 _1_ RTR LOOP 6 cbr 1020 [13a 1 0 800] ------- [0:2 5:0 29 1] [6] 1 0
D 0.689681414 _1_ RTR  TTL 0 tcp 0 [0 0 0 0] ------- [0:0 0:0 0 0] [0 0] 0 0
r 0.689970886 _0_ MAC  --- 0 ACK 38 [0 0 0 0] 
s 0.710000000 _0_ AGT  --- 7 cbr 1000 [0 0 0 0] ------- [0:2 5:0 32 0] [7] 0 0
r 0.710000000 _0_ RTR  --- 7 cbr 1000 [0 0 0 0] ------- [0:2 5:0 32 0] [7] 0 0
s 0.710000000 _0_ RTR  --- 7 cbr 1020 [0 0 0 0] ------- [0:2 5:0 30 1] [7] 0 0
s 0.710355000 _0_ MAC  --- 0 RTS 44 [242e 1 0 0] 
r 0.710707471 _1_ MAC  --- 0 RTS 44 [242e 1 0 0] 
s 0.710717471 _1_ MAC  --- 0 CTS 38 [22f4 0 0 0] 
r 0.711021943 _0_ MAC  --- 0 CTS 38 [22f4 0 0 0] 
s 0.711031943 _0_ MAC  --- 7 cbr 1078 [13a 1 0 800] ------- [0:2 5:0 30 1] [7] 0 0
r 0.719656414 _1_ MAC  --- 7 cbr 1020 [13a 1 0 800] ------- [0:2 5:0 30 1] [7] 1 0
s 0.719666414 _1_ MAC  --- 0 ACK 38 [0 0 0 0] 
r 0.719681414 _1_ RTR  --- 7 cbr 1020 [13a 1 0 800] ------- [0:2 5:0 30 1] [7] 1 0
D 0.719681414 _1_ RTR LOOP 7 cbr 1020 [13a 1 0 800] ------- [0:2 5:0 29 1] [7] 1 0
D 0.719681414 _1_ RTR  TTL 0 tcp 0 [0 0 0 0] ------- [0:0 0:0 0 0] [0 0] 0 0
r 0.719970886 _0_ MAC  --- 0 ACK 38 [0 0 0 0] 
s 0.740000000 _0_ AGT  --- 8 cbr 1000 [0 0 0 0] ------- [0:2 5:0 32 0] [8] 0 0
r 0.740000000 _0_ RTR  --- 8 cbr 1000 [0 0 0 0] ------- [0:2 5:0 32 0] [8] 0 0
s 0.740000000 _0_ RTR  --- 8 cbr 1020 [0 0 0 0] ------- [0:2 5:0 30 1] [8] 0 0
s 0.740075000 _0_ MAC  --- 0 RTS 44 [242e 1 0 0] 
r 0.740427471 _1_ MAC  --- 0 RTS 44 [242e 1 0 0] 
s 0.740437471 _1_ MAC  --- 0 CTS 38 [22f4 0 0 0] 
r 0.740741943 _0_ MAC  --- 0 CTS 38 [22f4 0 0 0] 
s 0.740751943 _0_ MAC  --- 8 cbr 1078 [13a 1 0 800] ------- [0:2 5:0 30 1] [8] 0 0
r 0.749376414 _1_ MAC  --- 8 cbr 1020 [13a 1 0 800] ------- [0:2 5:0 30 1] [8] 1 0
s 0.749386414 _1_ MAC  --- 0 ACK 38 [0 0 0 0] 
r 0.749401414 _1_ RTR  --- 8 cbr 1020 [13a 1 0 800] ------- [0:2 5:0 30 1] [8] 1 0
D 0.749401414 _1_ RTR LOOP 8 cbr 1020 [13a 1 0 800] ------- [0:2 5:0 29 1] [8] 1 0
D 0.749401414 _1_ RTR  TTL 0 tcp 0 [0 0 0 0] ------- [0:0 0:0 0 0] [0 0] 0 0
r 0.749690886 _0_ MAC  --- 0 ACK 38 [0 0 0 0] 
s 0.770000000 _0_ AGT  --- 9 cbr 1000 [0 0 0 0] ------- [0:2 5:0 32 0] [9] 0 0
r 0.770000000 _0_ RTR  --- 9 cbr 1000 [0 0 0 0] ------- [0:2 5:0 32 0] [9] 0 0
s 0.770000000 _0_ RTR  --- 9 cbr 1020 [0 0 0 0] ------- [0:2 5:0 30 1] [9] 0 0
s 0.770395000 _0_ MAC  --- 0 RTS 44 [242e 1 0 0] 
r 0.770747471 _1_ MAC  --- 0 RTS 44 [242e 1 0 0] 
s 0.770757471 _1_ MAC  --- 0 CTS 38 [22f4 0 0 0] 
r 0.771061943 _0_ MAC  --- 0 CTS 38 [22f4 0 0 0] 
s 0.771071943 _0_ MAC  --- 9 cbr 1078 [13a 1 0 800] ------- [0:2 5:0 30 1] [9] 0 0
r 0.779696414 _1_ MAC  --- 9 cbr 1020 [13a 1 0 800] ------- [0:2 5:0 30 1] [9] 1 0
s 0.779706414 _1_ MAC  --- 0 ACK 38 [0 0 0 0] 
r 0.779721414 _1_ RTR  --- 9 cbr 1020 [13a 1 0 800] ------- [0:2 5:0 30 1] [9] 1 0
D 0.779721414 _1_ RTR LOOP 9 cbr 1020 [13a 1 0 800] ------- [0:2 5:0 29 1] [9] 1 0
D 0.779721414 _1_ RTR  TTL 0 tcp 0 [0 0 0 0] ------- [0:0 0:0 0 0] [0 0] 0 0
r 0.780010886 _0_ MAC  --- 0 ACK 38 [0 0 0 0] 
s 0.800000000 _0_ AGT  --- 10 cbr 1000 [0 0 0 0] ------- [0:2 5:0 32 0] [10] 0 0
r 0.800000000 _0_ RTR  --- 10 cbr 1000 [0 0 0 0] ------- [0:2 5:0 32 0] [10] 0 0
s 0.800000000 _0_ RTR  --- 10 cbr 1020 [0 0 0 0] ------- [0:2 5:0 30 1] [10] 0 0
s 0.800295000 _0_ MAC  --- 0 RTS 44 [242e 1 0 0] 
r 0.800647471 _1_ MAC  --- 0 RTS 44 [242e 1 0 0] 
s 0.800657471 _1_ MAC  --- 0 CTS 38 [22f4 0 0 0] 
r 0.800961943 _0_ MAC  --- 0 CTS 38 [22f4 0 0 0] 
s 0.800971943 _0_ MAC  --- 10 cbr 1078 [13a 1 0 800] ------- [0:2 5:0 30 1] [10] 0 0
r 0.809596414 _1_ MAC  --- 10 cbr 1020 [13a 1 0 800] ------- [0:2 5:0 30 1] [10] 1 0
s 0.809606414 _1_ MAC  --- 0 ACK 38 [0 0 0 0] 
r 0.809621414 _1_ RTR  --- 10 cbr 1020 [13a 1 0 800] ------- [0:2 5:0 30 1] [10] 1 0
D 0.809621414 _1_ RTR LOOP 10 cbr 1020 [13a 1 0 800] ------- [0:2 5:0 29 1] [10] 1 0
D 0.809621414 _1_ RTR  TTL 0 tcp 0 [0 0 0 0] ------- [0:0 0:0 0 0] [0 0] 0 0
r 0.809910886 _0_ MAC  --- 0 ACK 38 [0 0 0 0] 
s 0.830000000 _0_ AGT  --- 11 cbr 1000 [0 0 0 0] ------- [0:2 5:0 32 0] [11] 0 0
r 0.830000000 _0_ RTR  --- 11 cbr 1000 [0 0 0 0] ------- [0:2 5:0 32 0] [11] 0 0
s 0.830000000 _0_ RTR  --- 11 cbr 1020 [0 0 0 0] ------- [0:2 5:0 30 1] [11] 0 0
s 0.830375000 _0_ MAC  --- 0 RTS 44 [242e 1 0 0] 
r 0.830727471 _1_ MAC  --- 0 RTS 44 [242e 1 0 0] 
s 0.830737471 _1_ MAC  --- 0 CTS 38 [22f4 0 0 0] 
r 0.831041943 _0_ MAC  --- 0 CTS 38 [22f4 0 0 0] 
s 0.831051943 _0_ MAC  --- 11 cbr 1078 [13a 1 0 800] ------- [0:2 5:0 30 1] [11] 0 0
r 0.839676414 _1_ MAC  --- 11 cbr 1020 [13a 1 0 800] ------- [0:2 5:0 30 1] [11] 1 0
s 0.839686414 _1_ MAC  --- 0 ACK 38 [0 0 0 0] 
r 0.839701414 _1_ RTR  --- 11 cbr 1020 [13a 1 0 800] ------- [0:2 5:0 30 1] [11] 1 0
D 0.839701414 _1_ RTR LOOP 11 cbr 1020 [13a 1 0 800] ------- [0:2 5:0 29 1] [11] 1 0
D 0.839701414 _1_ RTR  TTL 0 tcp 0 [0 0 0 0] ------- [0:0 0:0 0 0] [0 0] 0 0
r 0.839990886 _0_ MAC  --- 0 ACK 38 [0 0 0 0] 
s 0.860000000 _0_ AGT  --- 12 cbr 1000 [0 0 0 0] ------- [0:2 5:0 32 0] [12] 0 0
r 0.860000000 _0_ RTR  --- 12 cbr 1000 [0 0 0 0] ------- [0:2 5:0 32 0] [12] 0 0
s 0.860000000 _0_ RTR  --- 12 cbr 1020 [0 0 0 0] ------- [0:2 5:0 30 1] [12] 0 0
s 0.860315000 _0_ MAC  --- 0 RTS 44 [242e 1 0 0] 
r 0.860667471 _1_ MAC  --- 0 RTS 44 [242e 1 0 0] 
s 0.860677471 _1_ MAC  --- 0 CTS 38 [22f4 0 0 0] 
r 0.860981943 _0_ MAC  --- 0 CTS 38 [22f4 0 0 0] 
s 0.860991943 _0_ MAC  --- 12 cbr 1078 [13a 1 0 800] ------- [0:2 5:0 30 1] [12] 0 0
r 0.869616414 _1_ MAC  --- 12 cbr 1020 [13a 1 0 800] ------- [0:2 5:0 30 1] [12] 1 0
s 0.869626414 _1_ MAC  --- 0 ACK 38 [0 0 0 0] 
r 0.869641414 _1_ RTR  --- 12 cbr 1020 [13a 1 0 800] ------- [0:2 5:0 30 1] [12] 1 0
D 0.869641414 _1_ RTR LOOP 12 cbr 1020 [13a 1 0 800] ------- [0:2 5:0 29 1] [12] 1 0
D 0.869641414 _1_ RTR  TTL 0 tcp 0 [0 0 0 0] ------- [0:0 0:0 0 0] [0 0] 0 0
r 0.869930886 _0_ MAC  --- 0 ACK 38 [0 0 0 0] 
s 0.890000000 _0_ AGT  --- 13 cbr 1000 [0 0 0 0] ------- [0:2 5:0 32 0] [13] 0 0
r 0.890000000 _0_ RTR  --- 13 cbr 1000 [0 0 0 0] ------- [0:2 5:0 32 0] [13] 0 0
s 0.890000000 _0_ RTR  --- 13 cbr 1020 [0 0 0 0] ------- [0:2 5:0 30 1] [13] 0 0
s 0.890355000 _0_ MAC  --- 0 RTS 44 [242e 1 0 0] 
r 0.890707471 _1_ MAC  --- 0 RTS 44 [242e 1 0 0] 
s 0.890717471 _1_ MAC  --- 0 CTS 38 [22f4 0 0 0] 
r 0.891021943 _0_ MAC  --- 0 CTS 38 [22f4 0 0 0] 
s 0.891031943 _0_ MAC  --- 13 cbr 1078 [13a 1 0 800] ------- [0:2 5:0 30 1] [13] 0 0
r 0.899656414 _1_ MAC  --- 13 cbr 1020 [13a 1 0 800] ------- [0:2 5:0 30 1] [13] 1 0
s 0.899666414 _1_ MAC  --- 0 ACK 38 [0 0 0 0] 
r 0.899681414 _1_ RTR  --- 13 cbr 1020 [13a 1 0 800] ------- [0:2 5:0 30 1] [13] 1 0
D 0.899681414 _1_ RTR LOOP 13 cbr 1020 [13a 1 0 800] ------- [0:2 5:0 29 1] [13] 1 0
D 0.899681414 _1_ RTR  TTL 0 tcp 0 [0 0 0 0] ------- [0:0 0:0 0 0] [0 0] 0 0
r 0.899970886 _0_ MAC  --- 0 ACK 38 [0 0 0 0] 
s 0.920000000 _0_ AGT  --- 14 cbr 1000 [0 0 0 0] ------- [0:2 5:0 32 0] [14] 0 0
r 0.920000000 _0_ RTR  --- 14 cbr 1000 [0 0 0 0] ------- [0:2 5:0 32 0] [14] 0 0
s 0.920000000 _0_ RTR  --- 14 cbr 1020 [0 0 0 0] ------- [0:2 5:0 30 1] [14] 0 0
s 0.920555000 _0_ MAC  --- 0 RTS 44 [242e 1 0 0] 
r 0.920907471 _1_ MAC  --- 0 RTS 44 [242e 1 0 0] 
s 0.920917471 _1_ MAC  --- 0 CTS 38 [22f4 0 0 0] 
r 0.921221943 _0_ MAC  --- 0 CTS 38 [22f4 0 0 0] 
s 0.921231943 _0_ MAC  --- 14 cbr 1078 [13a 1 0 800] ------- [0:2 5:0 30 1] [14] 0 0
r 0.929856414 _1_ MAC  --- 14 cbr 1020 [13a 1 0 800] ------- [0:2 5:0 30 1] [14] 1 0
s 0.929866414 _1_ MAC  --- 0 ACK 38 [0 0 0 0] 
r 0.929881414 _1_ RTR  --- 14 cbr 1020 [13a 1 0 800] ------- [0:2 5:0 30 1] [14] 1 0
D 0.929881414 _1_ RTR LOOP 14 cbr 1020 [13a 1 0 800] ------- [0:2 5:0 29 1] [14] 1 0
D 0.929881414 _1_ RTR  TTL 0 tcp 0 [0 0 0 0] ------- [0:0 0:0 0 0] [0 0] 0 0
r 0.930170886 _0_ MAC  --- 0 ACK 38 [0 0 0 0] 
s 0.950000000 _0_ AGT  --- 15 cbr 1000 [0 0 0 0] ------- [0:2 5:0 32 0] [15] 0 0
r 0.950000000 _0_ RTR  --- 15 cbr 1000 [0 0 0 0] ------- [0:2 5:0 32 0] [15] 0 0
s 0.950000000 _0_ RTR  --- 15 cbr 1020 [0 0 0 0] ------- [0:2 5:0 30 1] [15] 0 0
s 0.950195000 _0_ MAC  --- 0 RTS 44 [242e 1 0 0] 
r 0.950547471 _1_ MAC  --- 0 RTS 44 [242e 1 0 0] 
s 0.950557471 _1_ MAC  --- 0 CTS 38 [22f4 0 0 0] 
r 0.950861943 _0_ MAC  --- 0 CTS 38 [22f4 0 0 0] 
s 0.950871943 _0_ MAC  --- 15 cbr 1078 [13a 1 0 800] ------- [0:2 5:0 30 1] [15] 0 0
r 0.959496414 _1_ MAC  --- 15 cbr 1020 [13a 1 0 800] ------- [0:2 5:0 30 1] [15] 1 0
s 0.959506414 _1_ MAC  --- 0 ACK 38 [0 0 0 0] 
r 0.959521414 _1_ RTR  --- 15 cbr 1020 [13a 1 0 800] ------- [0:2 5:0 30 1] [15] 1 0
D 0.959521414 _1_ RTR LOOP 15 cbr 1020 [13a 1 0 800] ------- [0:2 5:0 29 1] [15] 1 0
D 0.959521414 _1_ RTR  TTL 0 tcp 0 [0 0 0 0] ------- [0:0 0:0 0 0] [0 0] 0 0
r 0.959810886 _0_ MAC  --- 0 ACK 38 [0 0 0 0] 
s 0.980000000 _0_ AGT  --- 16 cbr 1000 [0 0 0 0] ------- [0:2 5:0 32 0] [16] 0 0
r 0.980000000 _0_ RTR  --- 16 cbr 1000 [0 0 0 0] ------- [0:2 5:0 32 0] [16] 0 0
s 0.980000000 _0_ RTR  --- 16 cbr 1020 [0 0 0 0] ------- [0:2 5:0 30 1] [16] 0 0
s 0.980115000 _0_ MAC  --- 0 RTS 44 [242e 1 0 0] 
r 0.980467471 _1_ MAC  --- 0 RTS 44 [242e 1 0 0] 
s 0.980477471 _1_ MAC  --- 0 CTS 38 [22f4 0 0 0] 
r 0.980781943 _0_ MAC  --- 0 CTS 38 [22f4 0 0 0] 
s 0.980791943 _0_ MAC  --- 16 cbr 1078 [13a 1 0 800] ------- [0:2 5:0 30 1] [16] 0 0
r 0.989416414 _1_ MAC  --- 16 cbr 1020 [13a 1 0 800] ------- [0:2 5:0 30 1] [16] 1 0
s 0.989426414 _1_ MAC  --- 0 ACK 38 [0 0 0 0] 
r 0.989441414 _1_ RTR  --- 16 cbr 1020 [13a 1 0 800] ------- [0:2 5:0 30 1] [16] 1 0
D 0.989441414 _1_ RTR LOOP 16 cbr 1020 [13a 1 0 800] ------- [0:2 5:0 29 1] [16] 1 0
D 0.989441414 _1_ RTR  TTL 0 tcp 0 [0 0 0 0] ------- [0:0 0:0 0 0] [0 0] 0 0
r 0.989730886 _0_ MAC  --- 0 ACK 38 [0 0 0 0] 
s 1.000000000 _0_ AGT  --- 17 cbr 1000 [0 0 0 0] ------- [0:3 2:0 32 0] [0] 0 0
r 1.000000000 _0_ RTR  --- 17 cbr 1000 [0 0 0 0] ------- [0:3 2:0 32 0] [0] 0 0
s 1.000000000 _0_ RTR  --- 0 AODV 48 [0 0 0 0] ------- [0:255 -1:255 30 0] [0x2 1 2 [2 0] [0 6]] (REQUEST)
s 1.000195000 _0_ MAC  --- 0 AODV 106 [0 ffffffff 0 800] ------- [0:255 -1:255 30 0] [0x2 1 2 [2 0] [0 6]] (REQUEST)
r 1.001043471 _1_ MAC  --- 0 AODV 48 [0 ffffffff 0 800] ------- [0:255 -1:255 30 0] [0x2 1 2 [2 0] [0 6]] (REQUEST)
r 1.001068471 _1_ RTR  --- 0 AODV 48 [0 ffffffff 0 800] ------- [0:255 -1:255 30 0] [0x2 1 2 [2 0] [0 6]] (REQUEST)
s 1.008419383 _1_ RTR  --- 0 AODV 48 [0 ffffffff 0 800] ------- [1:255 -1:255 29 0] [0x2 2 2 [2 0] [0 6]] (REQUEST)
s 1.008574383 _1_ MAC  --- 0 AODV 106 [0 ffffffff 1 800] ------- [1:255 -1:255 29 0] [0x2 2 2 [2 0] [0 6]] (REQUEST)
r 1.009422854 _0_ MAC  --- 0 AODV 48 [0 ffffffff 1 800] ------- [1:255 -1:255 29 0] [0x2 2 2 [2 0] [0 6]] (REQUEST)
r 1.009422854 _2_ MAC  --- 0 AODV 48 [0 ffffffff 1 800] ------- [1:255 -1:255 29 0] [0x2 2 2 [2 0] [0 6]] (REQUEST)
r 1.009423128 _3_ MAC  --- 0 AODV 48 [0 ffffffff 1 800] ------- [1:255 -1:255 29 0] [0x2 2 2 [2 0] [0 6]] (REQUEST)
r 1.009447854 _0_ RTR  --- 0 AODV 48 [0 ffffffff 1 800] ------- [1:255 -1:255 29 0] [0x2 2 2 [2 0] [0 6]] (REQUEST)
r 1.009447854 _2_ RTR  --- 0 AODV 48 [0 ffffffff 1 800] ------- [1:255 -1:255 29 0] [0x2 2 2 [2 0] [0 6]] (REQUEST)
s 1.009447854 _2_ RTR  --- 0 AODV 44 [0 0 0 0] ------- [2:255 0:255 30 1] [0x4 1 [2 4] 10.000000] (REPLY)
r 1.009448128 _3_ RTR  --- 0 AODV 48 [0 ffffffff 1 800] ------- [1:255 -1:255 29 0] [0x2 2 2 [2 0] [0 6]] (REQUEST)
s 1.009582854 _2_ MAC  --- 0 RTS 44 [5ae 1 2 0] 
r 1.009935325 _1_ MAC  --- 0 RTS 44 [5ae 1 2 0] 
s 1.009945325 _1_ MAC  --- 0 CTS 38 [474 2 0 0] 
s 1.010000000 _0_ AGT  --- 18 cbr 1000 [0 0 0 0] ------- [0:2 5:0 32 0] [17] 0 0
r 1.010000000 _0_ RTR  --- 18 cbr 1000 [0 0 0 0] ------- [0:2 5:0 32 0] [17] 0 0
s 1.010000000 _0_ RTR  --- 18 cbr 1020 [0 0 0 0] ------- [0:2 5:0 30 1] [17] 0 0
r 1.010249797 _2_ MAC  --- 0 CTS 38 [474 2 0 0] 
s 1.010259797 _2_ MAC  --- 0 AODV 102 [13a 1 2 800] ------- [2:255 0:255 30 1] [0x4 1 [2 4] 10.000000] (REPLY)
r 1.011076268 _1_ MAC  --- 0 AODV 44 [13a 1 2 800] ------- [2:255 0:255 30 1] [0x4 1 [2 4] 10.000000] (REPLY)
s 1.011086268 _1_ MAC  --- 0 ACK 38 [0 2 0 0] 
r 1.011101268 _1_ RTR  --- 0 AODV 44 [13a 1 2 800] ------- [2:255 0:255 30 1] [0x4 1 [2 4] 10.000000] (REPLY)
f 1.011101268 _1_ RTR  --- 0 AODV 44 [13a 1 2 800] ------- [2:255 0:255 29 0] [0x4 2 [2 4] 10.000000] (REPLY)
r 1.011390740 _2_ MAC  --- 0 ACK 38 [0 2 0 0] 
s 1.011600268 _1_ MAC  --- 0 RTS 44 [5ae 0 1 0] 
r 1.011952740 _0_ MAC  --- 0 RTS 44 [5ae 0 1 0] 
s 1.011962740 _0_ MAC  --- 0 CTS 38 [474 1 0 0] 
r 1.012267211 _1_ MAC  --- 0 CTS 38 [474 1 0 0] 
s 1.012277211 _1_ MAC  --- 0 AODV 102 [13a 0 1 800] ------- [2:255 0:255 29 0] [0x4 2 [2 4] 10.000000] (REPLY)
r 1.013093682 _0_ MAC  --- 0 AODV 44 [13a 0 1 800] ------- [2:255 0:255 29 0] [0x4 2 [2 4] 10.000000] (REPLY)
s 1.013103682 _0_ MAC  --- 0 ACK 38 [0 1 0 0] 
r 1.013118682 _0_ RTR  --- 0 AODV 44 [13a 0 1 800] ------- [2:255 0:255 29 0] [0x4 2 [2 4] 10.000000] (REPLY)
s 1.013118682 _0_ RTR  --- 17 cbr 1020 [0 0 0 0] ------- [0:3 2:0 30 1] [0] 0 0
r 1.013408154 _1_ MAC  --- 0 ACK 38 [0 1 0 0] 
s 1.013697682 _0_ MAC  --- 0 RTS 44 [242e 1 0 0] 
r 1.014050154 _1_ MAC  --- 0 RTS 44 [242e 1 0 0] 
s 1.014060154 _1_ MAC  --- 0 CTS 38 [22f4 0 0 0] 
r 1.014364625 _0_ MAC  --- 0 CTS 38 [22f4 0 0 0] 
s 1.014374625 _0_ MAC  --- 18 cbr 1078 [13a 1 0 800] ------- [0:2 5:0 30 1] [17] 0 0
s 1.017592130 _3_ RTR  --- 0 AODV 48 [0 ffffffff 1 800] ------- [3:255 -1:255 28 0] [0x2 3 2 [2 0] [0 6]] (REQUEST)
r 1.022999097 _1_ MAC  --- 18 cbr 1020 [13a 1 0 800] ------- [0:2 5:0 30 1] [17] 1 0
s 1.023009097 _1_ MAC  --- 0 ACK 38 [0 0 0 0] 
r 1.023024097 _1_ RTR  --- 18 cbr 1020 [13a 1 0 800] ------- [0:2 5:0 30 1] [17] 1 0
D 1.023024097 _1_ RTR LOOP 18 cbr 1020 [13a 1 0 800] ------- [0:2 5:0 29 1] [17] 1 0
D 1.023024097 _1_ RTR  TTL 0 tcp 0 [0 0 0 0] ------- [0:0 0:0 0 0] [0 0] 0 0
r 1.023313568 _0_ MAC  --- 0 ACK 38 [0 0 0 0] 
s 1.023473827 _3_ MAC  --- 0 AODV 106 [0 ffffffff 3 800] ------- [3:255 -1:255 28 0] [0x2 3 2 [2 0] [0 6]] (REQUEST)
r 1.024322160 _2_ MAC  --- 0 AODV 48 [0 ffffffff 3 800] ------- [3:255 -1:255 28 0] [0x2 3 2 [2 0] [0 6]] (REQUEST)
r 1.024322160 _4_ MAC  --- 0 AODV 48 [0 ffffffff 3 800] ------- [3:255 -1:255 28 0] [0x2 3 2 [2 0] [0 6]] (REQUEST)
r 1.024322573 _1_ MAC  --- 0 AODV 48 [0 ffffffff 3 800] ------- [3:255 -1:255 28 0] [0x2 3 2 [2 0] [0 6]] (REQUEST)